<?xml version="1.0" encoding="UTF-8"?>

<!-- generated on 2026-05-20T01:12:24.966701+05:30 by Eclipse SUMO sumo 1.26.0
<sumoConfiguration xmlns:xsi="http://www.w3.org/2001/XMLSchema-instance" xsi:noNamespaceSchemaLocation="http://sumo.dlr.de/xsd/sumoConfiguration.xsd">

    <input>
        <net-file value="intersection.net.xml"/>
        <route-files value="routes.rou.xml"/>
    </input>

    <output>
        <tripinfo-output value="test_trips.xml"/>
    </output>

    <time>
        <begin value="0"/>
        <end value="600"/>
    </time>

    <report>
        <verbose value="false"/>
        <no-warnings value="true"/>
        <no-step-log value="true"/>
    </report>

</sumoConfiguration>
-->

<tripinfos xmlns:xsi="http://www.w3.org/2001/XMLSchema-instance" xsi:noNamespaceSchemaLocation="http://sumo.dlr.de/xsd/tripinfo_file.xsd">
    <tripinfo id="3" depart="3.00" departLane="-42376372#1_0" departPos="5.10" departSpeed="0.00" departDelay="0.00" arrival="23.00" arrivalLane="-1184622784#1_0" arrivalPos="36.46" arrivalSpeed="14.09" duration="20.00" routeLength="177.32" waitingTime="0.00" waitingCount="0" stopTime="0.00" timeLoss="7.00" rerouteNo="0" devices="tripinfo_3" vType="DEFAULT_VEHTYPE" speedFactor="1.08" vaporized=""/>
    <tripinfo id="16" depart="19.00" departLane="42376371#2_0" departPos="5.10" departSpeed="0.00" departDelay="3.00" arrival="29.00" arrivalLane="42375975#4_0" arrivalPos="43.93" arrivalSpeed="11.34" duration="10.00" routeLength="67.66" waitingTime="0.00" waitingCount="0" stopTime="0.00" timeLoss="3.67" rerouteNo="0" devices="tripinfo_16" vType="DEFAULT_VEHTYPE" speedFactor="0.88" vaporized=""/>
    <tripinfo id="1" depart="1.00" departLane="42375996#0_0" departPos="5.10" departSpeed="0.00" departDelay="0.00" arrival="36.00" arrivalLane="42375991#11_0" arrivalPos="12.36" arrivalSpeed="12.85" duration="35.00" routeLength="353.70" waitingTime="0.00" waitingCount="0" stopTime="0.00" timeLoss="6.27" rerouteNo="0" devices="tripinfo_1" vType="DEFAULT_VEHTYPE" speedFactor="0.94" vaporized=""/>
    <tripinfo id="4" depart="4.00" departLane="-42375991#3_0" departPos="2.44" departSpeed="0.00" departDelay="0.00" arrival="39.00" arrivalLane="1207112697_0" arrivalPos="61.47" arrivalSpeed="13.08" duration="35.00" routeLength="372.93" waitingTime="0.00" waitingCount="0" stopTime="0.00" timeLoss="7.22" rerouteNo="0" devices="tripinfo_4" vType="DEFAULT_VEHTYPE" speedFactor="1.03" vaporized=""/>
    <tripinfo id="0" depart="0.00" departLane="-42375996#0_0" departPos="5.10" departSpeed="0.00" departDelay="0.00" arrival="47.00" arrivalLane="-42375991#9_0" arrivalPos="1.32" arrivalSpeed="14.02" duration="47.00" routeLength="580.17" waitingTime="0.00" waitingCount="0" stopTime="0.00" timeLoss="14.02" rerouteNo="0" devices="tripinfo_0" vType="DEFAULT_VEHTYPE" speedFactor="1.06" vaporized=""/>
    <tripinfo id="7" depart="7.00" departLane="42376001#3_0" departPos="5.10" departSpeed="0.00" departDelay="0.00" arrival="50.00" arrivalLane="-1094429403#0_0" arrivalPos="18.68" arrivalSpeed="9.21" duration="43.00" routeLength="357.48" waitingTime="0.00" waitingCount="0" stopTime="0.00" timeLoss="10.73" rerouteNo="0" devices="tripinfo_7" vType="DEFAULT_VEHTYPE" speedFactor="0.89" vaporized=""/>
    <tripinfo id="15" depart="15.00" departLane="42376012#1_0" departPos="5.10" departSpeed="0.00" departDelay="0.00" arrival="53.00" arrivalLane="42375976#2_0" arrivalPos="49.36" arrivalSpeed="12.54" duration="38.00" routeLength="344.88" waitingTime="0.00" waitingCount="0" stopTime="0.00" timeLoss="7.85" rerouteNo="0" devices="tripinfo_15" vType="DEFAULT_VEHTYPE" speedFactor="0.93" vaporized=""/>
    <tripinfo id="13" depart="13.00" departLane="1420646177_0" departPos="0.20" departSpeed="0.00" departDelay="0.00" arrival="56.00" arrivalLane="994960234_0" arrivalPos="51.27" arrivalSpeed="14.76" duration="43.00" routeLength="433.76" waitingTime="0.00" waitingCount="0" stopTime="0.00" timeLoss="12.63" rerouteNo="0" devices="tripinfo_13" vType="DEFAULT_VEHTYPE" speedFactor="1.12" vaporized=""/>
    <tripinfo id="30" depart="30.00" departLane="-42375991#11_0" departPos="5.10" departSpeed="0.00" departDelay="0.00" arrival="56.00" arrivalLane="737470750_0" arrivalPos="30.78" arrivalSpeed="13.95" duration="26.00" routeLength="218.10" waitingTime="0.00" waitingCount="0" stopTime="0.00" timeLoss="10.97" rerouteNo="0" devices="tripinfo_30" vType="DEFAULT_VEHTYPE" speedFactor="1.18" vaporized=""/>
    <tripinfo id="29" depart="29.00" departLane="-42375998#0_0" departPos="5.10" departSpeed="0.00" departDelay="0.00" arrival="57.00" arrivalLane="-42375997#1_0" arrivalPos="45.60" arrivalSpeed="11.79" duration="28.00" routeLength="244.62" waitingTime="0.00" waitingCount="0" stopTime="0.00" timeLoss="6.58" rerouteNo="0" devices="tripinfo_29" vType="DEFAULT_VEHTYPE" speedFactor="0.93" vaporized=""/>
    <tripinfo id="18" depart="18.00" departLane="-42375991#5_0" departPos="5.10" departSpeed="0.00" departDelay="0.00" arrival="58.00" arrivalLane="-42375999_0" arrivalPos="118.31" arrivalSpeed="12.85" duration="40.00" routeLength="322.23" waitingTime="0.00" waitingCount="0" stopTime="0.00" timeLoss="11.02" rerouteNo="0" devices="tripinfo_18" vType="DEFAULT_VEHTYPE" speedFactor="0.94" vaporized=""/>
    <tripinfo id="17" depart="17.00" departLane="42375991#6_0" departPos="5.10" departSpeed="0.00" departDelay="0.00" arrival="60.00" arrivalLane="-363563882_0" arrivalPos="81.73" arrivalSpeed="11.85" duration="43.00" routeLength="399.23" waitingTime="0.00" waitingCount="0" stopTime="0.00" timeLoss="9.13" rerouteNo="0" devices="tripinfo_17" vType="DEFAULT_VEHTYPE" speedFactor="0.94" vaporized=""/>
    <tripinfo id="34" depart="34.00" departLane="-42375995#1_0" departPos="5.10" departSpeed="0.00" departDelay="0.00" arrival="70.00" arrivalLane="-42375996#0_0" arrivalPos="200.66" arrivalSpeed="13.27" duration="36.00" routeLength="295.33" waitingTime="1.00" waitingCount="1" stopTime="0.00" timeLoss="12.94" rerouteNo="0" devices="tripinfo_34" vType="DEFAULT_VEHTYPE" speedFactor="0.99" vaporized=""/>
    <tripinfo id="12" depart="13.00" departLane="42376001#3_0" departPos="5.10" departSpeed="0.00" departDelay="1.00" arrival="71.00" arrivalLane="42375995#3_0" arrivalPos="38.74" arrivalSpeed="13.34" duration="58.00" routeLength="611.44" waitingTime="0.00" waitingCount="0" stopTime="0.00" timeLoss="14.09" rerouteNo="0" devices="tripinfo_12" vType="DEFAULT_VEHTYPE" speedFactor="1.05" vaporized=""/>
    <tripinfo id="33" depart="33.00" departLane="50280633#5_0" departPos="5.10" departSpeed="0.00" departDelay="0.00" arrival="75.00" arrivalLane="1057809633_0" arrivalPos="63.45" arrivalSpeed="15.45" duration="42.00" routeLength="393.54" waitingTime="0.00" waitingCount="0" stopTime="0.00" timeLoss="18.56" rerouteNo="0" devices="tripinfo_33" vType="DEFAULT_VEHTYPE" speedFactor="1.17" vaporized=""/>
    <tripinfo id="8" depart="10.00" departLane="42376001#3_0" departPos="5.10" departSpeed="0.00" departDelay="2.00" arrival="76.00" arrivalLane="42375991#6_0" arrivalPos="16.61" arrivalSpeed="9.37" duration="66.00" routeLength="421.18" waitingTime="8.00" waitingCount="2" stopTime="0.00" timeLoss="30.52" rerouteNo="0" devices="tripinfo_8" vType="DEFAULT_VEHTYPE" speedFactor="0.94" vaporized=""/>
    <tripinfo id="41" depart="41.00" departLane="42376001#0_0" departPos="5.10" departSpeed="0.00" departDelay="0.00" arrival="76.00" arrivalLane="-994960233#0_0" arrivalPos="4.67" arrivalSpeed="6.72" duration="35.00" routeLength="249.50" waitingTime="0.00" waitingCount="0" stopTime="0.00" timeLoss="12.71" rerouteNo="0" devices="tripinfo_41" vType="DEFAULT_VEHTYPE" speedFactor="0.96" vaporized=""/>
    <tripinfo id="21" depart="21.00" departLane="42375976#3_0" departPos="5.10" departSpeed="0.00" departDelay="0.00" arrival="80.00" arrivalLane="-42376371#2_0" arrivalPos="19.79" arrivalSpeed="13.10" duration="59.00" routeLength="488.25" waitingTime="4.00" waitingCount="2" stopTime="0.00" timeLoss="21.91" rerouteNo="0" devices="tripinfo_21" vType="DEFAULT_VEHTYPE" speedFactor="1.01" vaporized=""/>
    <tripinfo id="46" depart="46.00" departLane="-42375975#11_0" departPos="5.10" departSpeed="0.00" departDelay="0.00" arrival="80.00" arrivalLane="-994960235#0_0" arrivalPos="49.48" arrivalSpeed="13.59" duration="34.00" routeLength="203.03" waitingTime="9.00" waitingCount="1" stopTime="0.00" timeLoss="17.70" rerouteNo="0" devices="tripinfo_46" vType="DEFAULT_VEHTYPE" speedFactor="1.00" vaporized=""/>
    <tripinfo id="42" depart="42.00" departLane="-326085448_0" departPos="5.10" departSpeed="0.00" departDelay="0.00" arrival="81.00" arrivalLane="-737470749_0" arrivalPos="60.25" arrivalSpeed="14.42" duration="39.00" routeLength="353.54" waitingTime="0.00" waitingCount="0" stopTime="0.00" timeLoss="13.59" rerouteNo="0" devices="tripinfo_42" vType="DEFAULT_VEHTYPE" speedFactor="1.09" vaporized=""/>
    <tripinfo id="25" depart="25.00" departLane="-42375976#2_0" departPos="5.10" departSpeed="0.00" departDelay="0.00" arrival="82.00" arrivalLane="-42376372#1_0" arrivalPos="16.99" arrivalSpeed="11.56" duration="57.00" routeLength="267.78" waitingTime="14.00" waitingCount="3" stopTime="0.00" timeLoss="30.59" rerouteNo="0" devices="tripinfo_25" vType="DEFAULT_VEHTYPE" speedFactor="0.87" vaporized=""/>
    <tripinfo id="35" depart="35.00" departLane="42375975#0_0" departPos="5.10" departSpeed="0.00" departDelay="0.00" arrival="84.00" arrivalLane="-42375997#0_0" arrivalPos="54.58" arrivalSpeed="12.95" duration="49.00" routeLength="519.69" waitingTime="0.00" waitingCount="0" stopTime="0.00" timeLoss="10.51" rerouteNo="0" devices="tripinfo_35" vType="DEFAULT_VEHTYPE" speedFactor="1.02" vaporized=""/>
    <tripinfo id="26" depart="26.00" departLane="42375968#1_0" departPos="5.10" departSpeed="0.00" departDelay="0.00" arrival="85.00" arrivalLane="42375991#4_0" arrivalPos="10.10" arrivalSpeed="8.70" duration="59.00" routeLength="691.12" waitingTime="0.00" waitingCount="0" stopTime="0.00" timeLoss="11.01" rerouteNo="0" devices="tripinfo_26" vType="DEFAULT_VEHTYPE" speedFactor="0.92" vaporized=""/>
    <tripinfo id="47" depart="47.00" departLane="-994960231_0" departPos="5.10" departSpeed="0.00" departDelay="0.00" arrival="86.00" arrivalLane="737470752#1_0" arrivalPos="10.67" arrivalSpeed="8.88" duration="39.00" routeLength="310.08" waitingTime="0.00" waitingCount="0" stopTime="0.00" timeLoss="11.52" rerouteNo="0" devices="tripinfo_47" vType="DEFAULT_VEHTYPE" speedFactor="0.90" vaporized=""/>
    <tripinfo id="40" depart="40.00" departLane="-42375975#11_0" departPos="5.10" departSpeed="0.00" departDelay="0.00" arrival="87.00" arrivalLane="42375977#0_0" arrivalPos="99.35" arrivalSpeed="13.62" duration="47.00" routeLength="509.82" waitingTime="0.00" waitingCount="0" stopTime="0.00" timeLoss="9.78" rerouteNo="0" devices="tripinfo_40" vType="DEFAULT_VEHTYPE" speedFactor="1.03" vaporized=""/>
    <tripinfo id="28" depart="28.00" departLane="-42375991#5_0" departPos="5.10" departSpeed="0.00" departDelay="0.00" arrival="89.00" arrivalLane="-1420646177_0" arrivalPos="0.20" arrivalSpeed="7.11" duration="61.00" routeLength="493.41" waitingTime="11.00" waitingCount="1" stopTime="0.00" timeLoss="30.28" rerouteNo="0" devices="tripinfo_28" vType="DEFAULT_VEHTYPE" speedFactor="1.13" vaporized=""/>
    <tripinfo id="54" depart="54.00" departLane="-1094429401_0" departPos="5.10" departSpeed="0.00" departDelay="0.00" arrival="89.00" arrivalLane="-42376012#0_0" arrivalPos="27.82" arrivalSpeed="13.51" duration="35.00" routeLength="335.20" waitingTime="2.00" waitingCount="1" stopTime="0.00" timeLoss="9.12" rerouteNo="0" devices="tripinfo_54" vType="DEFAULT_VEHTYPE" speedFactor="1.00" vaporized=""/>
    <tripinfo id="6" depart="7.00" departLane="-42375991#3_0" departPos="2.44" departSpeed="0.00" departDelay="1.00" arrival="90.00" arrivalLane="42375975#6_0" arrivalPos="25.50" arrivalSpeed="11.22" duration="83.00" routeLength="343.24" waitingTime="41.00" waitingCount="1" stopTime="0.00" timeLoss="56.03" rerouteNo="0" devices="tripinfo_6" vType="DEFAULT_VEHTYPE" speedFactor="1.05" vaporized=""/>
    <tripinfo id="10" depart="10.00" departLane="-42375975#0_0" departPos="5.10" departSpeed="0.00" departDelay="0.00" arrival="92.00" arrivalLane="-42375975#4_0" arrivalPos="43.93" arrivalSpeed="13.05" duration="82.00" routeLength="757.49" waitingTime="2.00" waitingCount="1" stopTime="0.00" timeLoss="32.98" rerouteNo="0" devices="tripinfo_10" vType="DEFAULT_VEHTYPE" speedFactor="1.09" vaporized=""/>
    <tripinfo id="11" depart="11.00" departLane="42376022#0_0" departPos="5.10" departSpeed="0.00" departDelay="0.00" arrival="92.00" arrivalLane="42375975#9_0" arrivalPos="0.10" arrivalSpeed="7.74" duration="81.00" routeLength="372.99" waitingTime="38.00" waitingCount="1" stopTime="0.00" timeLoss="52.70" rerouteNo="0" devices="tripinfo_11" vType="DEFAULT_VEHTYPE" speedFactor="1.03" vaporized=""/>
    <tripinfo id="74" depart="74.00" departLane="42376371#0_0" departPos="5.10" departSpeed="0.00" departDelay="0.00" arrival="92.00" arrivalLane="-42375975#1_0" arrivalPos="83.73" arrivalSpeed="9.42" duration="18.00" routeLength="160.20" waitingTime="0.00" waitingCount="0" stopTime="0.00" timeLoss="5.08" rerouteNo="0" devices="tripinfo_74" vType="DEFAULT_VEHTYPE" speedFactor="0.96" vaporized=""/>
    <tripinfo id="59" depart="59.00" departLane="-42371512#4_0" departPos="5.10" departSpeed="0.00" departDelay="0.00" arrival="93.00" arrivalLane="1094431093_0" arrivalPos="25.20" arrivalSpeed="12.87" duration="34.00" routeLength="346.50" waitingTime="0.00" waitingCount="0" stopTime="0.00" timeLoss="13.04" rerouteNo="0" devices="tripinfo_59" vType="DEFAULT_VEHTYPE" speedFactor="0.97" vaporized=""/>
    <tripinfo id="23" depart="23.00" departLane="-42375995#3_0" departPos="5.10" departSpeed="0.00" departDelay="0.00" arrival="96.00" arrivalLane="737470749_0" arrivalPos="60.25" arrivalSpeed="11.85" duration="73.00" routeLength="711.26" waitingTime="0.00" waitingCount="0" stopTime="0.00" timeLoss="22.47" rerouteNo="0" devices="tripinfo_23" vType="DEFAULT_VEHTYPE" speedFactor="0.89" vaporized=""/>
    <tripinfo id="38" depart="38.00" departLane="994960254_0" departPos="5.10" departSpeed="0.00" departDelay="0.00" arrival="97.00" arrivalLane="1227721419_0" arrivalPos="266.79" arrivalSpeed="24.16" duration="59.00" routeLength="804.11" waitingTime="0.00" waitingCount="0" stopTime="0.00" timeLoss="16.01" rerouteNo="0" devices="tripinfo_38" vType="DEFAULT_VEHTYPE" speedFactor="1.10" vaporized=""/>
    <tripinfo id="45" depart="45.00" departLane="42375991#11_0" departPos="5.10" departSpeed="0.00" departDelay="0.00" arrival="100.00" arrivalLane="42371512#3_0" arrivalPos="199.60" arrivalSpeed="23.67" duration="55.00" routeLength="434.19" waitingTime="14.00" waitingCount="1" stopTime="0.00" timeLoss="28.03" rerouteNo="0" devices="tripinfo_45" vType="DEFAULT_VEHTYPE" speedFactor="1.09" vaporized=""/>
    <tripinfo id="75" depart="75.00" departLane="-42375991#6_0" departPos="5.10" departSpeed="0.00" departDelay="0.00" arrival="103.00" arrivalLane="42375991#10_0" arrivalPos="10.99" arrivalSpeed="13.15" duration="28.00" routeLength="222.72" waitingTime="0.00" waitingCount="0" stopTime="0.00" timeLoss="8.97" rerouteNo="0" devices="tripinfo_75" vType="DEFAULT_VEHTYPE" speedFactor="0.98" vaporized=""/>
    <tripinfo id="24" depart="24.00" departLane="-42375977#0_0" departPos="5.10" departSpeed="0.00" departDelay="0.00" arrival="105.00" arrivalLane="42375995#3_0" arrivalPos="38.74" arrivalSpeed="10.59" duration="81.00" routeLength="780.31" waitingTime="0.00" waitingCount="0" stopTime="0.00" timeLoss="11.65" rerouteNo="0" devices="tripinfo_24" vType="DEFAULT_VEHTYPE" speedFactor="0.83" vaporized=""/>
    <tripinfo id="67" depart="67.00" departLane="994960254_0" departPos="5.10" departSpeed="0.00" departDelay="0.00" arrival="106.00" arrivalLane="42375990#0_0" arrivalPos="41.92" arrivalSpeed="12.02" duration="39.00" routeLength="352.41" waitingTime="0.00" waitingCount="0" stopTime="0.00" timeLoss="8.03" rerouteNo="0" devices="tripinfo_67" vType="DEFAULT_VEHTYPE" speedFactor="0.91" vaporized=""/>
    <tripinfo id="5" depart="5.00" departLane="-1094431097_0" departPos="5.10" departSpeed="0.00" departDelay="0.00" arrival="107.00" arrivalLane="-42375991#4_0" arrivalPos="10.10" arrivalSpeed="10.63" duration="102.00" routeLength="582.55" waitingTime="28.00" waitingCount="1" stopTime="0.00" timeLoss="47.24" rerouteNo="0" devices="tripinfo_5" vType="DEFAULT_VEHTYPE" speedFactor="0.83" vaporized=""/>
    <tripinfo id="69" depart="69.00" departLane="-42375975#4_0" departPos="5.10" departSpeed="0.00" departDelay="0.00" arrival="108.00" arrivalLane="-42375991#9_0" arrivalPos="1.32" arrivalSpeed="13.34" duration="39.00" routeLength="255.96" waitingTime="7.00" waitingCount="1" stopTime="0.00" timeLoss="19.82" rerouteNo="0" devices="tripinfo_69" vType="DEFAULT_VEHTYPE" speedFactor="1.02" vaporized=""/>
    <tripinfo id="43" depart="43.00" departLane="994960254_0" departPos="5.10" departSpeed="0.00" departDelay="0.00" arrival="111.00" arrivalLane="326085448_0" arrivalPos="100.60" arrivalSpeed="13.61" duration="68.00" routeLength="673.29" waitingTime="1.00" waitingCount="1" stopTime="0.00" timeLoss="18.76" rerouteNo="0" devices="tripinfo_43" vType="DEFAULT_VEHTYPE" speedFactor="1.04" vaporized=""/>
    <tripinfo id="68" depart="68.00" departLane="-737470750_0" departPos="5.10" departSpeed="0.00" departDelay="0.00" arrival="111.00" arrivalLane="1275273538_0" arrivalPos="128.24" arrivalSpeed="25.23" duration="43.00" routeLength="469.53" waitingTime="0.00" waitingCount="0" stopTime="0.00" timeLoss="13.99" rerouteNo="0" devices="tripinfo_68" vType="DEFAULT_VEHTYPE" speedFactor="1.04" vaporized=""/>
    <tripinfo id="64" depart="64.00" departLane="-42376372#1_0" departPos="5.10" departSpeed="0.00" departDelay="0.00" arrival="113.00" arrivalLane="-42375991#6_0" arrivalPos="16.61" arrivalSpeed="8.95" duration="49.00" routeLength="375.67" waitingTime="1.00" waitingCount="1" stopTime="0.00" timeLoss="17.73" rerouteNo="0" devices="tripinfo_64" vType="DEFAULT_VEHTYPE" speedFactor="0.94" vaporized=""/>
    <tripinfo id="83" depart="83.00" departLane="994960235#1_0" departPos="5.10" departSpeed="0.00" departDelay="0.00" arrival="115.00" arrivalLane="-42375975#4_0" arrivalPos="43.93" arrivalSpeed="13.23" duration="32.00" routeLength="275.13" waitingTime="0.00" waitingCount="0" stopTime="0.00" timeLoss="9.88" rerouteNo="0" devices="tripinfo_83" vType="DEFAULT_VEHTYPE" speedFactor="0.97" vaporized=""/>
    <tripinfo id="48" depart="84.00" departLane="42376372#1_0" departPos="5.10" departSpeed="0.00" departDelay="36.00" arrival="116.00" arrivalLane="-42375997#0_0" arrivalPos="54.58" arrivalSpeed="11.42" duration="32.00" routeLength="243.60" waitingTime="0.00" waitingCount="0" stopTime="0.00" timeLoss="8.50" rerouteNo="0" devices="tripinfo_48" vType="DEFAULT_VEHTYPE" speedFactor="0.88" vaporized=""/>
    <tripinfo id="51" depart="54.00" departLane="-42375997#1_0" departPos="5.10" departSpeed="0.00" departDelay="3.00" arrival="117.00" arrivalLane="42375977#1_0" arrivalPos="112.91" arrivalSpeed="15.65" duration="63.00" routeLength="669.92" waitingTime="0.00" waitingCount="0" stopTime="0.00" timeLoss="22.52" rerouteNo="0" devices="tripinfo_51" vType="DEFAULT_VEHTYPE" speedFactor="1.17" vaporized=""/>
    <tripinfo id="63" depart="63.00" departLane="-42375995#1_0" departPos="5.10" departSpeed="0.00" departDelay="0.00" arrival="117.00" arrivalLane="42376371#0_0" arrivalPos="15.74" arrivalSpeed="10.84" duration="54.00" routeLength="499.08" waitingTime="1.00" waitingCount="1" stopTime="0.00" timeLoss="15.41" rerouteNo="0" devices="tripinfo_63" vType="DEFAULT_VEHTYPE" speedFactor="0.99" vaporized=""/>
    <tripinfo id="86" depart="86.00" departLane="-42375990#1_0" departPos="5.10" departSpeed="0.00" departDelay="0.00" arrival="118.00" arrivalLane="-994960236_0" arrivalPos="34.17" arrivalSpeed="13.63" duration="32.00" routeLength="342.48" waitingTime="0.00" waitingCount="0" stopTime="0.00" timeLoss="6.44" rerouteNo="0" devices="tripinfo_86" vType="DEFAULT_VEHTYPE" speedFactor="1.00" vaporized=""/>
    <tripinfo id="90" depart="90.00" departLane="994960254_0" departPos="5.10" departSpeed="0.00" departDelay="0.00" arrival="118.00" arrivalLane="42376017#0_0" arrivalPos="59.57" arrivalSpeed="13.71" duration="28.00" routeLength="220.52" waitingTime="0.00" waitingCount="0" stopTime="0.00" timeLoss="10.38" rerouteNo="0" devices="tripinfo_90" vType="DEFAULT_VEHTYPE" speedFactor="1.02" vaporized=""/>
    <tripinfo id="2" depart="2.00" departLane="50280633#1_0" departPos="5.10" departSpeed="0.00" departDelay="0.00" arrival="119.00" arrivalLane="-42375975#11_0" arrivalPos="7.42" arrivalSpeed="12.82" duration="117.00" routeLength="439.59" waitingTime="66.00" waitingCount="2" stopTime="0.00" timeLoss="85.34" rerouteNo="0" devices="tripinfo_2" vType="DEFAULT_VEHTYPE" speedFactor="1.01" vaporized=""/>
    <tripinfo id="70" depart="70.00" departLane="-42376001#1_0" departPos="5.10" departSpeed="0.00" departDelay="0.00" arrival="123.00" arrivalLane="42375975#5_0" arrivalPos="16.14" arrivalSpeed="14.06" duration="53.00" routeLength="337.63" waitingTime="9.00" waitingCount="1" stopTime="0.00" timeLoss="26.12" rerouteNo="0" devices="tripinfo_70" vType="DEFAULT_VEHTYPE" speedFactor="1.02" vaporized=""/>
    <tripinfo id="53" depart="53.00" departLane="42375999_0" departPos="5.10" departSpeed="0.00" departDelay="0.00" arrival="124.00" arrivalLane="326085448_0" arrivalPos="100.60" arrivalSpeed="14.57" duration="71.00" routeLength="585.93" waitingTime="12.00" waitingCount="2" stopTime="0.00" timeLoss="35.74" rerouteNo="0" devices="tripinfo_53" vType="DEFAULT_VEHTYPE" speedFactor="1.10" vaporized=""/>
    <tripinfo id="92" depart="92.00" departLane="42376022#1_0" departPos="5.10" departSpeed="0.00" departDelay="0.00" arrival="124.00" arrivalLane="-42375991#0_0" arrivalPos="163.86" arrivalSpeed="10.96" duration="32.00" routeLength="233.46" waitingTime="2.00" waitingCount="1" stopTime="0.00" timeLoss="10.80" rerouteNo="0" devices="tripinfo_92" vType="DEFAULT_VEHTYPE" speedFactor="0.83" vaporized=""/>
    <tripinfo id="117" depart="118.00" departLane="994960254_0" departPos="5.10" departSpeed="0.00" departDelay="1.00" arrival="124.00" arrivalLane="994960254_0" arrivalPos="33.84" arrivalSpeed="11.47" duration="6.00" routeLength="28.74" waitingTime="0.00" waitingCount="0" stopTime="0.00" timeLoss="3.17" rerouteNo="0" devices="tripinfo_117" vType="DEFAULT_VEHTYPE" speedFactor="1.00" vaporized=""/>
    <tripinfo id="66" depart="66.00" departLane="-42375991#1_0" departPos="5.10" departSpeed="0.00" departDelay="0.00" arrival="125.00" arrivalLane="-42376004_0" arrivalPos="123.43" arrivalSpeed="11.90" duration="59.00" routeLength="547.74" waitingTime="0.00" waitingCount="0" stopTime="0.00" timeLoss="11.42" rerouteNo="0" devices="tripinfo_66" vType="DEFAULT_VEHTYPE" speedFactor="0.91" vaporized=""/>
    <tripinfo id="96" depart="96.00" departLane="-42375995#1_0" departPos="5.10" departSpeed="0.00" departDelay="0.00" arrival="126.00" arrivalLane="42375998#1_0" arrivalPos="17.46" arrivalSpeed="13.15" duration="30.00" routeLength="283.08" waitingTime="0.00" waitingCount="0" stopTime="0.00" timeLoss="8.22" rerouteNo="0" devices="tripinfo_96" vType="DEFAULT_VEHTYPE" speedFactor="1.01" vaporized=""/>
    <tripinfo id="19" depart="19.00" departLane="-42371512#2_0" departPos="5.10" departSpeed="0.00" departDelay="0.00" arrival="128.00" arrivalLane="-42375995#0_0" arrivalPos="23.86" arrivalSpeed="11.06" duration="109.00" routeLength="811.02" waitingTime="31.00" waitingCount="2" stopTime="0.00" timeLoss="62.77" rerouteNo="0" devices="tripinfo_19" vType="DEFAULT_VEHTYPE" speedFactor="1.16" vaporized=""/>
    <tripinfo id="37" depart="37.00" departLane="-42376371#1_0" departPos="5.10" departSpeed="0.00" departDelay="0.00" arrival="130.00" arrivalLane="-42375991#8_0" arrivalPos="5.86" arrivalSpeed="15.31" duration="93.00" routeLength="437.45" waitingTime="35.00" waitingCount="2" stopTime="0.00" timeLoss="62.92" rerouteNo="0" devices="tripinfo_37" vType="DEFAULT_VEHTYPE" speedFactor="1.18" vaporized=""/>
    <tripinfo id="94" depart="94.00" departLane="-42376371#1_0" departPos="5.10" departSpeed="0.00" departDelay="0.00" arrival="130.00" arrivalLane="-42375968#0_0" arrivalPos="364.22" arrivalSpeed="23.27" duration="36.00" routeLength="708.89" waitingTime="0.00" waitingCount="0" stopTime="0.00" timeLoss="5.59" rerouteNo="0" devices="tripinfo_94" vType="DEFAULT_VEHTYPE" speedFactor="1.09" vaporized=""/>
    <tripinfo id="81" depart="81.00" departLane="-42376372#1_0" departPos="5.10" departSpeed="0.00" departDelay="0.00" arrival="131.00" arrivalLane="1094429401_0" arrivalPos="11.36" arrivalSpeed="9.94" duration="50.00" routeLength="395.66" waitingTime="6.00" waitingCount="1" stopTime="0.00" timeLoss="18.34" rerouteNo="0" devices="tripinfo_81" vType="DEFAULT_VEHTYPE" speedFactor="1.00" vaporized=""/>
    <tripinfo id="107" depart="107.00" departLane="-42375991#6_0" departPos="5.10" departSpeed="0.00" departDelay="0.00" arrival="132.00" arrivalLane="-42375975#7_0" arrivalPos="5.52" arrivalSpeed="12.29" duration="25.00" routeLength="193.23" waitingTime="0.00" waitingCount="0" stopTime="0.00" timeLoss="9.80" rerouteNo="0" devices="tripinfo_107" vType="DEFAULT_VEHTYPE" speedFactor="1.03" vaporized=""/>
    <tripinfo id="31" depart="31.00" departLane="42376372#1_0" departPos="5.10" departSpeed="0.00" departDelay="0.00" arrival="135.00" arrivalLane="-42376004_0" arrivalPos="123.43" arrivalSpeed="15.03" duration="104.00" routeLength="377.31" waitingTime="61.00" waitingCount="2" stopTime="0.00" timeLoss="77.43" rerouteNo="0" devices="tripinfo_31" vType="DEFAULT_VEHTYPE" speedFactor="1.15" vaporized=""/>
    <tripinfo id="89" depart="89.00" departLane="42375968#0_0" departPos="5.10" departSpeed="0.00" departDelay="0.00" arrival="135.00" arrivalLane="-363563882_0" arrivalPos="81.73" arrivalSpeed="13.90" duration="46.00" routeLength="762.24" waitingTime="0.00" waitingCount="0" stopTime="0.00" timeLoss="8.79" rerouteNo="0" devices="tripinfo_89" vType="DEFAULT_VEHTYPE" speedFactor="1.02" vaporized=""/>
    <tripinfo id="9" depart="9.00" departLane="994960232_0" departPos="5.10" departSpeed="0.00" departDelay="0.00" arrival="136.00" arrivalLane="-42376017#0_0" arrivalPos="59.51" arrivalSpeed="5.31" duration="127.00" routeLength="379.12" waitingTime="73.00" waitingCount="2" stopTime="0.00" timeLoss="91.92" rerouteNo="0" devices="tripinfo_9" vType="DEFAULT_VEHTYPE" speedFactor="0.86" vaporized=""/>
    <tripinfo id="50" depart="50.00" departLane="50280633#5_0" departPos="5.10" departSpeed="0.00" departDelay="0.00" arrival="136.00" arrivalLane="42376371#0_0" arrivalPos="15.74" arrivalSpeed="9.82" duration="86.00" routeLength="533.30" waitingTime="16.00" waitingCount="2" stopTime="0.00" timeLoss="41.14" rerouteNo="0" devices="tripinfo_50" vType="DEFAULT_VEHTYPE" speedFactor="0.85" vaporized=""/>
    <tripinfo id="88" depart="88.00" departLane="-42375991#9_0" departPos="1.32" departSpeed="0.00" departDelay="0.00" arrival="136.00" arrivalLane="50280633#5_0" arrivalPos="66.75" arrivalSpeed="27.38" duration="48.00" routeLength="608.85" waitingTime="2.00" waitingCount="1" stopTime="0.00" timeLoss="15.61" rerouteNo="0" devices="tripinfo_88" vType="DEFAULT_VEHTYPE" speedFactor="1.01" vaporized=""/>
    <tripinfo id="76" depart="76.00" departLane="-42375991#11_0" departPos="5.10" departSpeed="0.00" departDelay="0.00" arrival="137.00" arrivalLane="-42375976#0_0" arrivalPos="78.33" arrivalSpeed="13.42" duration="61.00" routeLength="464.89" waitingTime="11.00" waitingCount="1" stopTime="0.00" timeLoss="26.46" rerouteNo="0" devices="tripinfo_76" vType="DEFAULT_VEHTYPE" speedFactor="1.03" vaporized=""/>
    <tripinfo id="110" depart="110.00" departLane="-42376372#1_0" departPos="5.10" departSpeed="0.00" departDelay="0.00" arrival="137.00" arrivalLane="42375975#5_0" arrivalPos="16.14" arrivalSpeed="12.84" duration="27.00" routeLength="207.98" waitingTime="0.00" waitingCount="0" stopTime="0.00" timeLoss="8.14" rerouteNo="0" devices="tripinfo_110" vType="DEFAULT_VEHTYPE" speedFactor="0.93" vaporized=""/>
    <tripinfo id="44" depart="50.00" departLane="-1094429403#0_0" departPos="5.10" departSpeed="0.00" departDelay="6.00" arrival="139.00" arrivalLane="42375995#0_0" arrivalPos="23.86" arrivalSpeed="11.20" duration="89.00" routeLength="149.00" waitingTime="59.00" waitingCount="1" stopTime="0.00" timeLoss="76.62" rerouteNo="0" devices="tripinfo_44" vType="DEFAULT_VEHTYPE" speedFactor="1.04" vaporized=""/>
    <tripinfo id="61" depart="61.00" departLane="42375997#2_0" departPos="5.10" departSpeed="0.00" departDelay="0.00" arrival="139.00" arrivalLane="-42375976#0_0" arrivalPos="78.33" arrivalSpeed="14.53" duration="78.00" routeLength="907.53" waitingTime="0.00" waitingCount="0" stopTime="0.00" timeLoss="23.78" rerouteNo="0" devices="tripinfo_61" vType="DEFAULT_VEHTYPE" speedFactor="1.12" vaporized=""/>
    <tripinfo id="98" depart="98.00" departLane="994960232_0" departPos="5.10" departSpeed="0.00" departDelay="0.00" arrival="140.00" arrivalLane="994960254_0" arrivalPos="33.84" arrivalSpeed="13.48" duration="42.00" routeLength="364.61" waitingTime="0.00" waitingCount="0" stopTime="0.00" timeLoss="16.76" rerouteNo="0" devices="tripinfo_98" vType="DEFAULT_VEHTYPE" speedFactor="1.12" vaporized=""/>
    <tripinfo id="27" depart="27.00" departLane="42376022#0_0" departPos="5.10" departSpeed="0.00" departDelay="0.00" arrival="144.00" arrivalLane="42375998#0_0" arrivalPos="61.19" arrivalSpeed="13.16" duration="117.00" routeLength="469.17" waitingTime="56.00" waitingCount="4" stopTime="0.00" timeLoss="79.13" rerouteNo="0" devices="tripinfo_27" vType="DEFAULT_VEHTYPE" speedFactor="0.95" vaporized=""/>