<?xml version="1.0" encoding="UTF-8"?>

<!-- generated on 2026-05-20T10:12:15.074792+05:30 by Eclipse SUMO sumo 1.26.0
<sumoConfiguration xmlns:xsi="http://www.w3.org/2001/XMLSchema-instance" xsi:noNamespaceSchemaLocation="http://sumo.dlr.de/xsd/sumoConfiguration.xsd">

    <input>
        <net-file value="/Users/nitishpatil/Projects/trafficsense/src/signals/network_real/intersection.net.xml"/>
        <route-files value="/Users/nitishpatil/Projects/trafficsense/src/signals/network_real/routes.rou.xml"/>
    </input>

    <output>
        <tripinfo-output value="/Users/nitishpatil/Projects/trafficsense/src/signals/adaptive_tripinfo_real.xml"/>
    </output>

    <time>
        <begin value="0"/>
        <end value="600"/>
    </time>

    <report>
        <verbose value="false"/>
        <no-warnings value="true"/>
        <no-step-log value="true"/>
    </report>

    <traci_server>
        <remote-port value="55678"/>
    </traci_server>

</sumoConfiguration>
-->

<tripinfos xmlns:xsi="http://www.w3.org/2001/XMLSchema-instance" xsi:noNamespaceSchemaLocation="http://sumo.dlr.de/xsd/tripinfo_file.xsd">
    <tripinfo id="1" depart="1.00" departLane="-42375995#0_0" departPos="5.10" departSpeed="0.00" departDelay="0.50" arrival="20.00" arrivalLane="-42375997#1_0" arrivalPos="45.60" arrivalSpeed="12.44" duration="19.00" routeLength="148.75" waitingTime="0.00" waitingCount="0" stopTime="0.00" timeLoss="6.29" rerouteNo="0" devices="tripinfo_1" vType="DEFAULT_VEHTYPE" speedFactor="0.94" vaporized=""/>
    <tripinfo id="24" depart="12.00" departLane="42375977#0_0" departPos="5.10" departSpeed="0.00" departDelay="0.00" arrival="24.00" arrivalLane="42375977#0_0" arrivalPos="99.35" arrivalSpeed="10.85" duration="12.00" routeLength="94.25" waitingTime="0.00" waitingCount="0" stopTime="0.00" timeLoss="2.89" rerouteNo="0" devices="tripinfo_24" vType="DEFAULT_VEHTYPE" speedFactor="0.83" vaporized=""/>
    <tripinfo id="6" depart="3.00" departLane="42376017#0_0" departPos="5.10" departSpeed="0.00" departDelay="0.00" arrival="25.00" arrivalLane="-1094429400_0" arrivalPos="24.93" arrivalSpeed="12.63" duration="22.00" routeLength="175.39" waitingTime="0.00" waitingCount="0" stopTime="0.00" timeLoss="8.13" rerouteNo="0" devices="tripinfo_6" vType="DEFAULT_VEHTYPE" speedFactor="1.05" vaporized=""/>
    <tripinfo id="44" depart="22.00" departLane="-1094429401_0" departPos="5.10" departSpeed="0.00" departDelay="0.00" arrival="31.00" arrivalLane="42375995#3_0" arrivalPos="38.74" arrivalSpeed="13.85" duration="9.00" routeLength="62.51" waitingTime="0.00" waitingCount="0" stopTime="0.00" timeLoss="3.32" rerouteNo="0" devices="tripinfo_44" vType="DEFAULT_VEHTYPE" speedFactor="1.04" vaporized=""/>
    <tripinfo id="2" depart="1.00" departLane="42375996#0_0" departPos="5.10" departSpeed="0.00" departDelay="0.00" arrival="32.00" arrivalLane="42375991#10_0" arrivalPos="10.99" arrivalSpeed="12.86" duration="31.00" routeLength="327.18" waitingTime="0.00" waitingCount="0" stopTime="0.00" timeLoss="6.46" rerouteNo="0" devices="tripinfo_2" vType="DEFAULT_VEHTYPE" speedFactor="1.01" vaporized=""/>
    <tripinfo id="12" depart="7.00" departLane="42376012#1_0" departPos="5.10" departSpeed="0.00" departDelay="1.00" arrival="37.00" arrivalLane="42375995#3_0" arrivalPos="38.74" arrivalSpeed="14.43" duration="30.00" routeLength="332.76" waitingTime="0.00" waitingCount="0" stopTime="0.00" timeLoss="5.89" rerouteNo="0" devices="tripinfo_12" vType="DEFAULT_VEHTYPE" speedFactor="1.05" vaporized=""/>
    <tripinfo id="5" depart="5.00" departLane="-42375990#0_0" departPos="5.10" departSpeed="0.00" departDelay="2.50" arrival="41.00" arrivalLane="42375975#7_0" arrivalPos="5.52" arrivalSpeed="11.03" duration="36.00" routeLength="298.99" waitingTime="0.00" waitingCount="0" stopTime="0.00" timeLoss="8.03" rerouteNo="0" devices="tripinfo_5" vType="DEFAULT_VEHTYPE" speedFactor="0.83" vaporized=""/>
    <tripinfo id="26" depart="13.00" departLane="-42375975#2_0" departPos="0.20" departSpeed="0.00" departDelay="0.00" arrival="44.00" arrivalLane="-994960233#1_0" arrivalPos="46.13" arrivalSpeed="11.61" duration="31.00" routeLength="282.32" waitingTime="0.00" waitingCount="0" stopTime="0.00" timeLoss="6.30" rerouteNo="0" devices="tripinfo_26" vType="DEFAULT_VEHTYPE" speedFactor="0.92" vaporized=""/>
    <tripinfo id="59" depart="30.00" departLane="1094429400_0" departPos="5.10" departSpeed="0.00" departDelay="0.50" arrival="44.00" arrivalLane="42375995#3_0" arrivalPos="38.74" arrivalSpeed="12.95" duration="14.00" routeLength="103.22" waitingTime="0.00" waitingCount="0" stopTime="0.00" timeLoss="5.30" rerouteNo="0" devices="tripinfo_59" vType="DEFAULT_VEHTYPE" speedFactor="0.97" vaporized=""/>
    <tripinfo id="0" depart="0.00" departLane="42375976#2_0" departPos="5.10" departSpeed="0.00" departDelay="0.00" arrival="45.00" arrivalLane="-1094429403#1_0" arrivalPos="23.08" arrivalSpeed="13.07" duration="45.00" routeLength="367.24" waitingTime="0.00" waitingCount="0" stopTime="0.00" timeLoss="16.22" rerouteNo="0" devices="tripinfo_0" vType="DEFAULT_VEHTYPE" speedFactor="1.06" vaporized=""/>
    <tripinfo id="13" depart="7.00" departLane="1094429400_0" departPos="5.10" departSpeed="0.00" departDelay="0.50" arrival="45.00" arrivalLane="994960235#0_0" arrivalPos="49.48" arrivalSpeed="14.37" duration="38.00" routeLength="339.59" waitingTime="3.00" waitingCount="1" stopTime="0.00" timeLoss="13.74" rerouteNo="0" devices="tripinfo_13" vType="DEFAULT_VEHTYPE" speedFactor="1.12" vaporized=""/>
    <tripinfo id="30" depart="15.00" departLane="-42375997#0_0" departPos="5.10" departSpeed="0.00" departDelay="0.00" arrival="48.00" arrivalLane="-42376011_0" arrivalPos="105.00" arrivalSpeed="11.35" duration="33.00" routeLength="234.69" waitingTime="2.00" waitingCount="1" stopTime="0.00" timeLoss="17.13" rerouteNo="0" devices="tripinfo_30" vType="DEFAULT_VEHTYPE" speedFactor="1.18" vaporized=""/>
    <tripinfo id="43" depart="22.00" departLane="994960235#0_0" departPos="5.10" departSpeed="0.00" departDelay="0.50" arrival="54.00" arrivalLane="42376371#0_0" arrivalPos="15.74" arrivalSpeed="10.97" duration="32.00" routeLength="205.12" waitingTime="4.00" waitingCount="1" stopTime="0.00" timeLoss="16.02" rerouteNo="0" devices="tripinfo_43" vType="DEFAULT_VEHTYPE" speedFactor="1.04" vaporized=""/>
    <tripinfo id="4" depart="2.00" departLane="-1094429403#1_0" departPos="5.10" departSpeed="0.00" departDelay="0.00" arrival="56.00" arrivalLane="-42375995#0_0" arrivalPos="23.86" arrivalSpeed="13.38" duration="54.00" routeLength="390.73" waitingTime="2.00" waitingCount="1" stopTime="0.00" timeLoss="22.53" rerouteNo="0" devices="tripinfo_4" vType="DEFAULT_VEHTYPE" speedFactor="1.03" vaporized=""/>
    <tripinfo id="7" depart="4.00" departLane="42376012#1_0" departPos="5.10" departSpeed="0.00" departDelay="0.50" arrival="58.00" arrivalLane="42375991#6_0" arrivalPos="16.61" arrivalSpeed="11.53" duration="54.00" routeLength="183.89" waitingTime="24.00" waitingCount="1" stopTime="0.00" timeLoss="35.70" rerouteNo="0" devices="tripinfo_7" vType="DEFAULT_VEHTYPE" speedFactor="0.89" vaporized=""/>
    <tripinfo id="73" depart="38.00" departLane="42375995#1_0" departPos="5.10" departSpeed="0.00" departDelay="1.50" arrival="59.00" arrivalLane="42375991#1_0" arrivalPos="19.69" arrivalSpeed="10.83" duration="21.00" routeLength="155.62" waitingTime="0.00" waitingCount="0" stopTime="0.00" timeLoss="8.56" rerouteNo="0" devices="tripinfo_73" vType="DEFAULT_VEHTYPE" speedFactor="1.06" vaporized=""/>
    <tripinfo id="49" depart="25.00" departLane="42375975#11_0" departPos="5.10" departSpeed="0.00" departDelay="0.50" arrival="61.00" arrivalLane="-42375991#0_0" arrivalPos="163.86" arrivalSpeed="11.45" duration="36.00" routeLength="338.47" waitingTime="0.00" waitingCount="0" stopTime="0.00" timeLoss="5.76" rerouteNo="0" devices="tripinfo_49" vType="DEFAULT_VEHTYPE" speedFactor="0.85" vaporized=""/>
    <tripinfo id="77" depart="39.00" departLane="-42375976#2_0" departPos="5.10" departSpeed="0.00" departDelay="0.50" arrival="61.00" arrivalLane="1094431093_0" arrivalPos="25.20" arrivalSpeed="11.73" duration="22.00" routeLength="201.32" waitingTime="0.00" waitingCount="0" stopTime="0.00" timeLoss="5.83" rerouteNo="0" devices="tripinfo_77" vType="DEFAULT_VEHTYPE" speedFactor="0.98" vaporized=""/>
    <tripinfo id="95" depart="49.00" departLane="-42375975#11_0" departPos="5.10" departSpeed="0.00" departDelay="1.50" arrival="61.00" arrivalLane="994960234_0" arrivalPos="51.27" arrivalSpeed="14.09" duration="12.00" routeLength="84.19" waitingTime="0.00" waitingCount="0" stopTime="0.00" timeLoss="5.64" rerouteNo="0" devices="tripinfo_95" vType="DEFAULT_VEHTYPE" speedFactor="1.06" vaporized=""/>
    <tripinfo id="8" depart="4.00" departLane="-42375998#1_0" departPos="5.10" departSpeed="0.00" departDelay="0.00" arrival="63.00" arrivalLane="-42375991#0_0" arrivalPos="163.86" arrivalSpeed="12.10" duration="59.00" routeLength="454.07" waitingTime="6.00" waitingCount="1" stopTime="0.00" timeLoss="22.62" rerouteNo="0" devices="tripinfo_8" vType="DEFAULT_VEHTYPE" speedFactor="0.94" vaporized=""/>
    <tripinfo id="18" depart="9.00" departLane="-42375990#1_0" departPos="5.10" departSpeed="0.00" departDelay="0.00" arrival="63.00" arrivalLane="-42376022#1_0" arrivalPos="65.65" arrivalSpeed="11.76" duration="54.00" routeLength="511.97" waitingTime="0.00" waitingCount="0" stopTime="0.00" timeLoss="11.53" rerouteNo="0" devices="tripinfo_18" vType="DEFAULT_VEHTYPE" speedFactor="0.94" vaporized=""/>
    <tripinfo id="3" depart="2.00" departLane="-42375990#0_0" departPos="5.10" departSpeed="0.00" departDelay="0.50" arrival="65.00" arrivalLane="1227721419_0" arrivalPos="266.79" arrivalSpeed="23.63" duration="63.00" routeLength="765.54" waitingTime="0.00" waitingCount="0" stopTime="0.00" timeLoss="17.16" rerouteNo="0" devices="tripinfo_3" vType="DEFAULT_VEHTYPE" speedFactor="1.08" vaporized=""/>
    <tripinfo id="21" depart="11.00" departLane="42375976#0_0" departPos="5.10" departSpeed="0.00" departDelay="0.50" arrival="67.00" arrivalLane="-994960233#0_0" arrivalPos="4.67" arrivalSpeed="8.96" duration="56.00" routeLength="353.18" waitingTime="6.00" waitingCount="1" stopTime="0.00" timeLoss="28.19" rerouteNo="0" devices="tripinfo_21" vType="DEFAULT_VEHTYPE" speedFactor="1.01" vaporized=""/>
    <tripinfo id="15" depart="8.00" departLane="42376372#0_0" departPos="5.10" departSpeed="0.00" departDelay="0.50" arrival="68.00" arrivalLane="42375977#1_0" arrivalPos="112.91" arrivalSpeed="12.10" duration="60.00" routeLength="584.82" waitingTime="0.00" waitingCount="0" stopTime="0.00" timeLoss="12.60" rerouteNo="0" devices="tripinfo_15" vType="DEFAULT_VEHTYPE" speedFactor="0.93" vaporized=""/>
    <tripinfo id="17" depart="9.00" departLane="42375991#3_0" departPos="2.44" departSpeed="0.00" departDelay="0.50" arrival="68.00" arrivalLane="-42371512#2_0" arrivalPos="303.44" arrivalSpeed="19.81" duration="59.00" routeLength="699.70" waitingTime="0.00" waitingCount="0" stopTime="0.00" timeLoss="12.54" rerouteNo="0" devices="tripinfo_17" vType="DEFAULT_VEHTYPE" speedFactor="0.94" vaporized=""/>
    <tripinfo id="25" depart="13.00" departLane="-42375975#5_0" departPos="5.10" departSpeed="0.00" departDelay="0.50" arrival="68.00" arrivalLane="42375995#3_0" arrivalPos="38.74" arrivalSpeed="11.41" duration="55.00" routeLength="479.92" waitingTime="0.00" waitingCount="0" stopTime="0.00" timeLoss="11.85" rerouteNo="0" devices="tripinfo_25" vType="DEFAULT_VEHTYPE" speedFactor="0.87" vaporized=""/>
    <tripinfo id="56" depart="28.00" departLane="-1184622784#1_0" departPos="5.10" departSpeed="0.00" departDelay="0.00" arrival="70.00" arrivalLane="42375998#1_0" arrivalPos="17.46" arrivalSpeed="11.53" duration="42.00" routeLength="264.97" waitingTime="7.00" waitingCount="1" stopTime="0.00" timeLoss="17.59" rerouteNo="0" devices="tripinfo_56" vType="DEFAULT_VEHTYPE" speedFactor="0.90" vaporized=""/>
    <tripinfo id="84" depart="42.00" departLane="-994960234_0" departPos="5.10" departSpeed="0.00" departDelay="0.00" arrival="70.00" arrivalLane="-42375996#2_0" arrivalPos="48.02" arrivalSpeed="14.41" duration="28.00" routeLength="117.11" waitingTime="10.00" waitingCount="1" stopTime="0.00" timeLoss="19.60" rerouteNo="0" devices="tripinfo_84" vType="DEFAULT_VEHTYPE" speedFactor="1.15" vaporized=""/>
    <tripinfo id="28" depart="14.00" departLane="50280633#0_0" departPos="5.10" departSpeed="0.00" departDelay="0.00" arrival="71.00" arrivalLane="42375998#1_0" arrivalPos="17.46" arrivalSpeed="14.28" duration="57.00" routeLength="780.54" waitingTime="8.00" waitingCount="1" stopTime="0.00" timeLoss="26.40" rerouteNo="0" devices="tripinfo_28" vType="DEFAULT_VEHTYPE" speedFactor="1.13" vaporized=""/>
    <tripinfo id="32" depart="16.00" departLane="737470752#0_0" departPos="5.10" departSpeed="0.00" departDelay="0.00" arrival="73.00" arrivalLane="1094431093_0" arrivalPos="25.20" arrivalSpeed="12.92" duration="57.00" routeLength="447.04" waitingTime="8.00" waitingCount="1" stopTime="0.00" timeLoss="25.35" rerouteNo="0" devices="tripinfo_32" vType="DEFAULT_VEHTYPE" speedFactor="1.01" vaporized=""/>
    <tripinfo id="38" depart="19.00" departLane="-1207112697_0" departPos="5.10" departSpeed="0.00" departDelay="0.00" arrival="74.00" arrivalLane="-42371512#2_0" arrivalPos="303.44" arrivalSpeed="24.09" duration="55.00" routeLength="697.24" waitingTime="0.00" waitingCount="0" stopTime="0.00" timeLoss="15.34" rerouteNo="0" devices="tripinfo_38" vType="DEFAULT_VEHTYPE" speedFactor="1.10" vaporized=""/>
    <tripinfo id="40" depart="20.00" departLane="42376001#3_0" departPos="5.10" departSpeed="0.00" departDelay="0.00" arrival="74.00" arrivalLane="1094429401_0" arrivalPos="11.36" arrivalSpeed="9.53" duration="54.00" routeLength="578.96" waitingTime="0.00" waitingCount="0" stopTime="0.00" timeLoss="11.23" rerouteNo="0" devices="tripinfo_40" vType="DEFAULT_VEHTYPE" speedFactor="1.03" vaporized=""/>
    <tripinfo id="69" depart="35.00" departLane="994960232_0" departPos="5.10" departSpeed="0.00" departDelay="0.50" arrival="76.00" arrivalLane="42375975#11_0" arrivalPos="7.42" arrivalSpeed="8.05" duration="41.00" routeLength="313.52" waitingTime="0.00" waitingCount="0" stopTime="0.00" timeLoss="17.03" rerouteNo="0" devices="tripinfo_69" vType="DEFAULT_VEHTYPE" speedFactor="1.02" vaporized=""/>
    <tripinfo id="91" depart="51.00" departLane="-42375975#10_0" departPos="2.58" departSpeed="0.00" departDelay="5.50" arrival="76.00" arrivalLane="-42376371#2_0" arrivalPos="19.79" arrivalSpeed="10.49" duration="25.00" routeLength="211.30" waitingTime="0.00" waitingCount="0" stopTime="0.00" timeLoss="6.94" rerouteNo="0" devices="tripinfo_91" vType="DEFAULT_VEHTYPE" speedFactor="0.89" vaporized=""/>
    <tripinfo id="86" depart="43.00" departLane="-42376017#1_0" departPos="5.10" departSpeed="0.00" departDelay="0.00" arrival="79.00" arrivalLane="994960252_0" arrivalPos="24.77" arrivalSpeed="12.09" duration="36.00" routeLength="380.70" waitingTime="0.00" waitingCount="0" stopTime="0.00" timeLoss="7.45" rerouteNo="0" devices="tripinfo_86" vType="DEFAULT_VEHTYPE" speedFactor="1.00" vaporized=""/>
    <tripinfo id="9" depart="5.00" departLane="994960233#0_0" departPos="4.67" departSpeed="0.00" departDelay="0.50" arrival="80.00" arrivalLane="-994960231_0" arrivalPos="87.02" arrivalSpeed="11.41" duration="75.00" routeLength="230.83" waitingTime="42.00" waitingCount="2" stopTime="0.00" timeLoss="53.24" rerouteNo="0" devices="tripinfo_9" vType="DEFAULT_VEHTYPE" speedFactor="0.86" vaporized=""/>
    <tripinfo id="76" depart="39.00" departLane="50280633#2_0" departPos="5.10" departSpeed="0.00" departDelay="1.00" arrival="83.00" arrivalLane="-42375999_0" arrivalPos="118.31" arrivalSpeed="13.14" duration="44.00" routeLength="468.59" waitingTime="0.00" waitingCount="0" stopTime="0.00" timeLoss="16.54" rerouteNo="0" devices="tripinfo_76" vType="DEFAULT_VEHTYPE" speedFactor="1.03" vaporized=""/>
    <tripinfo id="19" depart="10.00" departLane="-1207112697_0" departPos="5.10" departSpeed="0.00" departDelay="0.50" arrival="85.00" arrivalLane="-42375998#0_0" arrivalPos="61.19" arrivalSpeed="12.65" duration="75.00" routeLength="627.94" waitingTime="11.00" waitingCount="1" stopTime="0.00" timeLoss="32.67" rerouteNo="0" devices="tripinfo_19" vType="DEFAULT_VEHTYPE" speedFactor="1.16" vaporized=""/>
    <tripinfo id="106" depart="53.00" departLane="994960254_0" departPos="5.10" departSpeed="0.00" departDelay="0.00" arrival="85.00" arrivalLane="994960252_0" arrivalPos="24.77" arrivalSpeed="12.85" duration="32.00" routeLength="261.10" waitingTime="0.00" waitingCount="0" stopTime="0.00" timeLoss="10.56" rerouteNo="0" devices="tripinfo_106" vType="DEFAULT_VEHTYPE" speedFactor="1.01" vaporized=""/>
    <tripinfo id="52" depart="26.00" departLane="-1094429401_0" departPos="5.10" departSpeed="0.00" departDelay="0.00" arrival="86.00" arrivalLane="-737470752#0_0" arrivalPos="69.76" arrivalSpeed="23.61" duration="60.00" routeLength="579.62" waitingTime="7.00" waitingCount="1" stopTime="0.00" timeLoss="25.39" rerouteNo="0" devices="tripinfo_52" vType="DEFAULT_VEHTYPE" speedFactor="1.02" vaporized=""/>
    <tripinfo id="87" depart="46.00" departLane="-42375991#6_0" departPos="5.10" departSpeed="0.00" departDelay="2.50" arrival="86.00" arrivalLane="42376001#0_0" arrivalPos="48.43" arrivalSpeed="14.14" duration="40.00" routeLength="331.33" waitingTime="0.00" waitingCount="0" stopTime="0.00" timeLoss="14.05" rerouteNo="0" devices="tripinfo_87" vType="DEFAULT_VEHTYPE" speedFactor="1.04" vaporized=""/>
    <tripinfo id="57" depart="30.00" departLane="-994960233#1_0" departPos="5.10" departSpeed="0.00" departDelay="1.50" arrival="88.00" arrivalLane="42371512#3_0" arrivalPos="199.60" arrivalSpeed="24.10" duration="58.00" routeLength="539.44" waitingTime="4.00" waitingCount="1" stopTime="0.00" timeLoss="24.58" rerouteNo="0" devices="tripinfo_57" vType="DEFAULT_VEHTYPE" speedFactor="1.14" vaporized=""/>
    <tripinfo id="104" depart="52.00" departLane="-42375997#0_0" departPos="5.10" departSpeed="0.00" departDelay="0.00" arrival="89.00" arrivalLane="42375997#1_0" arrivalPos="45.60" arrivalSpeed="12.18" duration="37.00" routeLength="232.43" waitingTime="1.00" waitingCount="1" stopTime="0.00" timeLoss="15.23" rerouteNo="0" devices="tripinfo_104" vType="DEFAULT_VEHTYPE" speedFactor="0.89" vaporized=""/>
    <tripinfo id="105" depart="53.00" departLane="-1207112697_0" departPos="5.10" departSpeed="0.00" departDelay="0.50" arrival="90.00" arrivalLane="1094431093_0" arrivalPos="25.20" arrivalSpeed="13.12" duration="37.00" routeLength="303.37" waitingTime="0.00" waitingCount="0" stopTime="0.00" timeLoss="14.45" rerouteNo="0" devices="tripinfo_105" vType="DEFAULT_VEHTYPE" speedFactor="1.07" vaporized=""/>
    <tripinfo id="14" depart="7.00" departLane="-42376017#1_0" departPos="5.10" departSpeed="0.00" departDelay="0.00" arrival="91.00" arrivalLane="42371512#3_0" arrivalPos="199.60" arrivalSpeed="20.89" duration="84.00" routeLength="901.75" waitingTime="0.00" waitingCount="0" stopTime="0.00" timeLoss="20.64" rerouteNo="0" devices="tripinfo_14" vType="DEFAULT_VEHTYPE" speedFactor="0.99" vaporized=""/>
    <tripinfo id="37" depart="19.00" departLane="994960254_0" departPos="5.10" departSpeed="0.00" departDelay="0.50" arrival="92.00" arrivalLane="1227721419_0" arrivalPos="266.79" arrivalSpeed="25.67" duration="73.00" routeLength="804.11" waitingTime="12.00" waitingCount="1" stopTime="0.00" timeLoss="33.67" rerouteNo="0" devices="tripinfo_37" vType="DEFAULT_VEHTYPE" speedFactor="1.18" vaporized=""/>
    <tripinfo id="45" depart="23.00" departLane="42375991#0_0" departPos="5.10" departSpeed="0.00" departDelay="0.50" arrival="96.00" arrivalLane="42371512#3_0" arrivalPos="199.60" arrivalSpeed="24.11" duration="73.00" routeLength="804.98" waitingTime="0.00" waitingCount="0" stopTime="0.00" timeLoss="22.43" rerouteNo="0" devices="tripinfo_45" vType="DEFAULT_VEHTYPE" speedFactor="1.09" vaporized=""/>
    <tripinfo id="54" depart="27.00" departLane="-42375996#1_0" departPos="5.10" departSpeed="0.00" departDelay="0.00" arrival="96.00" arrivalLane="-42375968#0_0" arrivalPos="364.22" arrivalSpeed="21.00" duration="69.00" routeLength="735.15" waitingTime="3.00" waitingCount="1" stopTime="0.00" timeLoss="21.36" rerouteNo="0" devices="tripinfo_54" vType="DEFAULT_VEHTYPE" speedFactor="1.00" vaporized=""/>
    <tripinfo id="61" depart="31.00" departLane="994960236_0" departPos="5.10" departSpeed="0.00" departDelay="0.50" arrival="96.00" arrivalLane="42375990#0_0" arrivalPos="41.92" arrivalSpeed="14.25" duration="65.00" routeLength="148.95" waitingTime="42.00" waitingCount="1" stopTime="0.00" timeLoss="54.08" rerouteNo="0" devices="tripinfo_61" vType="DEFAULT_VEHTYPE" speedFactor="1.12" vaporized=""/>
    <tripinfo id="48" depart="24.00" departLane="737470752#0_0" departPos="5.10" departSpeed="0.00" departDelay="0.00" arrival="97.00" arrivalLane="42376372#1_0" arrivalPos="16.99" arrivalSpeed="4.49" duration="73.00" routeLength="385.62" waitingTime="21.00" waitingCount="2" stopTime="0.00" timeLoss="41.29" rerouteNo="0" devices="tripinfo_48" vType="DEFAULT_VEHTYPE" speedFactor="0.88" vaporized=""/>
    <tripinfo id="131" depart="66.00" departLane="42376000_0" departPos="5.10" departSpeed="0.00" departDelay="0.50" arrival="97.00" arrivalLane="50280633#3_0" arrivalPos="38.47" arrivalSpeed="13.73" duration="31.00" routeLength="214.42" waitingTime="2.00" waitingCount="1" stopTime="0.00" timeLoss="16.24" rerouteNo="0" devices="tripinfo_131" vType="DEFAULT_VEHTYPE" speedFactor="1.07" vaporized=""/>
    <tripinfo id="155" depart="78.00" departLane="1094429400_0" departPos="5.10" departSpeed="0.00" departDelay="0.50" arrival="97.00" arrivalLane="42375995#3_0" arrivalPos="38.74" arrivalSpeed="14.12" duration="19.00" routeLength="103.22" waitingTime="1.00" waitingCount="1" stopTime="0.00" timeLoss="11.33" rerouteNo="0" devices="tripinfo_155" vType="DEFAULT_VEHTYPE" speedFactor="1.12" vaporized=""/>
    <tripinfo id="29" depart="15.00" departLane="-42375990#1_0" departPos="5.10" departSpeed="0.00" departDelay="0.50" arrival="98.00" arrivalLane="-1184622784#1_0" arrivalPos="36.46" arrivalSpeed="12.17" duration="83.00" routeLength="550.24" waitingTime="18.00" waitingCount="1" stopTime="0.00" timeLoss="37.50" rerouteNo="0" devices="tripinfo_29" vType="DEFAULT_VEHTYPE" speedFactor="0.93" vaporized=""/>
    <tripinfo id="153" depart="77.00" departLane="-42375991#3_0" departPos="2.44" departSpeed="0.00" departDelay="0.50" arrival="100.00" arrivalLane="42375995#0_0" arrivalPos="23.86" arrivalSpeed="12.13" duration="23.00" routeLength="38.17" waitingTime="16.00" waitingCount="1" stopTime="0.00" timeLoss="18.55" rerouteNo="0" devices="tripinfo_153" vType="DEFAULT_VEHTYPE" speedFactor="0.93" vaporized=""/>
    <tripinfo id="120" depart="60.00" departLane="-1094429401_0" departPos="5.10" departSpeed="0.00" departDelay="0.00" arrival="101.00" arrivalLane="42375998#1_0" arrivalPos="17.46" arrivalSpeed="12.52" duration="41.00" routeLength="303.48" waitingTime="3.00" waitingCount="1" stopTime="0.00" timeLoss="14.92" rerouteNo="0" devices="tripinfo_120" vType="DEFAULT_VEHTYPE" speedFactor="0.94" vaporized=""/>
    <tripinfo id="58" depart="34.00" departLane="-42375991#6_0" departPos="5.10" departSpeed="0.00" departDelay="5.00" arrival="103.00" arrivalLane="42376372#1_0" arrivalPos="16.99" arrivalSpeed="8.91" duration="69.00" routeLength="285.28" waitingTime="26.00" waitingCount="2" stopTime="0.00" timeLoss="46.37" rerouteNo="0" devices="tripinfo_58" vType="DEFAULT_VEHTYPE" speedFactor="1.02" vaporized=""/>
    <tripinfo id="169" depart="85.00" departLane="42376004_0" departPos="5.10" departSpeed="0.00" departDelay="0.50" arrival="105.00" arrivalLane="-42375991#10_0" arrivalPos="10.79" arrivalSpeed="12.60" duration="20.00" routeLength="167.74" waitingTime="0.00" waitingCount="0" stopTime="0.00" timeLoss="5.50" rerouteNo="0" devices="tripinfo_169" vType="DEFAULT_VEHTYPE" speedFactor="0.94" vaporized=""/>
    <tripinfo id="112" depart="58.00" departLane="42376022#1_0" departPos="5.10" departSpeed="0.00" departDelay="2.00" arrival="107.00" arrivalLane="-42376372#0_0" arrivalPos="29.02" arrivalSpeed="13.98" duration="49.00" routeLength="419.67" waitingTime="4.00" waitingCount="1" stopTime="0.00" timeLoss="19.50" rerouteNo="0" devices="tripinfo_112" vType="DEFAULT_VEHTYPE" speedFactor="1.10" vaporized=""/>
    <tripinfo id="74" depart="37.00" departLane="994960236_0" departPos="5.10" departSpeed="0.00" departDelay="0.00" arrival="108.00" arrivalLane="-42375975#6_0" arrivalPos="25.50" arrivalSpeed="12.42" duration="71.00" routeLength="160.20" waitingTime="40.00" waitingCount="2" stopTime="0.00" timeLoss="57.23" rerouteNo="0" devices="tripinfo_74" vType="DEFAULT_VEHTYPE" speedFactor="0.96" vaporized=""/>
    <tripinfo id="163" depart="82.00" departLane="737470752#0_0" departPos="5.10" departSpeed="0.00" departDelay="0.50" arrival="111.00" arrivalLane="42375977#1_0" arrivalPos="112.91" arrivalSpeed="14.76" duration="29.00" routeLength="348.66" waitingTime="0.00" waitingCount="0" stopTime="0.00" timeLoss="9.15" rerouteNo="0" devices="tripinfo_163" vType="DEFAULT_VEHTYPE" speedFactor="1.13" vaporized=""/>
    <tripinfo id="23" depart="12.00" departLane="-42375991#6_0" departPos="5.10" departSpeed="0.00" departDelay="0.50" arrival="112.00" arrivalLane="737470751#1_0" arrivalPos="629.71" arrivalSpeed="23.42" duration="100.00" routeLength="1336.49" waitingTime="9.00" waitingCount="1" stopTime="0.00" timeLoss="32.58" rerouteNo="0" devices="tripinfo_23" vType="DEFAULT_VEHTYPE" speedFactor="0.89" vaporized=""/>
    <tripinfo id="93" depart="47.00" departLane="1094429400_0" departPos="5.10" departSpeed="0.00" departDelay="0.50" arrival="112.00" arrivalLane="42375997#0_0" arrivalPos="54.58" arrivalSpeed="7.82" duration="65.00" routeLength="338.91" waitingTime="21.00" waitingCount="2" stopTime="0.00" timeLoss="36.89" rerouteNo="0" devices="tripinfo_93" vType="DEFAULT_VEHTYPE" speedFactor="0.92" vaporized=""/>
    <tripinfo id="16" depart="8.00" departLane="50280633#2_0" departPos="5.10" departSpeed="0.00" departDelay="0.00" arrival="115.00" arrivalLane="42375975#4_0" arrivalPos="43.93" arrivalSpeed="12.00" duration="107.00" routeLength="454.42" waitingTime="56.00" waitingCount="2" stopTime="0.00" timeLoss="75.41" rerouteNo="0" devices="tripinfo_16" vType="DEFAULT_VEHTYPE" speedFactor="0.88" vaporized=""/>
    <tripinfo id="51" depart="26.00" departLane="42376000_0" departPos="5.10" departSpeed="0.00" departDelay="0.50" arrival="115.00" arrivalLane="1420646177_0" arrivalPos="0.20" arrivalSpeed="15.21" duration="89.00" routeLength="646.81" waitingTime="14.00" waitingCount="3" stopTime="0.00" timeLoss="53.53" rerouteNo="0" devices="tripinfo_51" vType="DEFAULT_VEHTYPE" speedFactor="1.17" vaporized=""/>
    <tripinfo id="146" depart="73.00" departLane="994960232_0" departPos="5.10" departSpeed="0.00" departDelay="0.00" arrival="116.00" arrivalLane="-42375976#3_0" arrivalPos="109.25" arrivalSpeed="11.26" duration="43.00" routeLength="326.32" waitingTime="3.00" waitingCount="1" stopTime="0.00" timeLoss="15.19" rerouteNo="0" devices="tripinfo_146" vType="DEFAULT_VEHTYPE" speedFactor="0.89" vaporized=""/>
    <tripinfo id="102" depart="52.00" departLane="-42375990#1_0" departPos="5.10" departSpeed="0.00" departDelay="1.00" arrival="117.00" arrivalLane="-994960236_0" arrivalPos="34.17" arrivalSpeed="12.80" duration="65.00" routeLength="342.48" waitingTime="16.00" waitingCount="2" stopTime="0.00" timeLoss="38.00" rerouteNo="0" devices="tripinfo_102" vType="DEFAULT_VEHTYPE" speedFactor="0.97" vaporized=""/>
    <tripinfo id="67" depart="36.00" departLane="50280633#2_0" departPos="5.10" departSpeed="0.00" departDelay="2.50" arrival="119.00" arrivalLane="-42375975#0_0" arrivalPos="35.81" arrivalSpeed="5.59" duration="83.00" routeLength="428.38" waitingTime="35.00" waitingCount="2" stopTime="0.00" timeLoss="59.31" rerouteNo="0" devices="tripinfo_67" vType="DEFAULT_VEHTYPE" speedFactor="0.91" vaporized=""/>
    <tripinfo id="50" depart="25.00" departLane="42375999_0" departPos="5.10" departSpeed="0.00" departDelay="0.00" arrival="120.00" arrivalLane="42371512#3_0" arrivalPos="199.60" arrivalSpeed="18.27" duration="95.00" routeLength="595.94" waitingTime="29.00" waitingCount="1" stopTime="0.00" timeLoss="48.45" rerouteNo="0" devices="tripinfo_50" vType="DEFAULT_VEHTYPE" speedFactor="0.85" vaporized=""/>
    <tripinfo id="179" depart="90.00" departLane="42375997#1_0" departPos="5.10" departSpeed="0.00" departDelay="0.50" arrival="120.00" arrivalLane="42375998#1_0" arrivalPos="17.46" arrivalSpeed="13.66" duration="30.00" routeLength="203.81" waitingTime="0.00" waitingCount="0" stopTime="0.00" timeLoss="14.46" rerouteNo="0" devices="tripinfo_179" vType="DEFAULT_VEHTYPE" speedFactor="1.06" vaporized=""/>
    <tripinfo id="212" depart="106.00" departLane="-42375991#3_0" departPos="2.44" departSpeed="0.00" departDelay="0.00" arrival="121.00" arrivalLane="-42375975#11_0" arrivalPos="7.42" arrivalSpeed="13.62" duration="15.00" routeLength="153.07" waitingTime="0.00" waitingCount="0" stopTime="0.00" timeLoss="3.16" rerouteNo="0" devices="tripinfo_212" vType="DEFAULT_VEHTYPE" speedFactor="1.00" vaporized=""/>
    <tripinfo id="219" depart="110.00" departLane="42375991#11_0" departPos="5.10" departSpeed="0.00" departDelay="0.50" arrival="124.00" arrivalLane="42375998#1_0" arrivalPos="17.46" arrivalSpeed="12.33" duration="14.00" routeLength="113.21" waitingTime="0.00" waitingCount="0" stopTime="0.00" timeLoss="3.65" rerouteNo="0" devices="tripinfo_219" vType="DEFAULT_VEHTYPE" speedFactor="0.91" vaporized=""/>