<?xml version="1.0" encoding="UTF-8"?>

<!-- generated on 2026-05-20T00:06:39.937353+05:30 by Eclipse SUMO sumo 1.26.0
<sumoConfiguration xmlns:xsi="http://www.w3.org/2001/XMLSchema-instance" xsi:noNamespaceSchemaLocation="http://sumo.dlr.de/xsd/sumoConfiguration.xsd">

    <input>
        <net-file value="/Users/nitishpatil/Projects/trafficsense/src/signals/network/intersection.net.xml"/>
        <route-files value="/Users/nitishpatil/Projects/trafficsense/src/signals/network/routes.rou.xml"/>
    </input>

    <output>
        <tripinfo-output value="/Users/nitishpatil/Projects/trafficsense/src/signals/adaptive_tripinfo.xml"/>
    </output>

    <time>
        <begin value="0"/>
        <end value="600"/>
    </time>

    <report>
        <verbose value="false"/>
        <no-warnings value="true"/>
        <no-step-log value="true"/>
    </report>

    <traci_server>
        <remote-port value="52789"/>
    </traci_server>

</sumoConfiguration>
-->

<tripinfos xmlns:xsi="http://www.w3.org/2001/XMLSchema-instance" xsi:noNamespaceSchemaLocation="http://sumo.dlr.de/xsd/tripinfo_file.xsd">
    <tripinfo id="f_ns.0" depart="0.00" departLane="n2c_0" departPos="5.10" departSpeed="0.00" departDelay="0.00" arrival="34.00" arrivalLane="c2s_1" arrivalPos="189.60" arrivalSpeed="13.53" duration="34.00" routeLength="394.90" waitingTime="0.00" waitingCount="0" stopTime="0.00" timeLoss="4.68" rerouteNo="0" devices="tripinfo_f_ns.0" vType="car" speedFactor="1.06" vaporized=""/>
    <tripinfo id="f_sn.0" depart="0.00" departLane="s2c_0" departPos="5.10" departSpeed="0.00" departDelay="0.00" arrival="35.00" arrivalLane="c2n_1" arrivalPos="189.60" arrivalSpeed="12.48" duration="35.00" routeLength="394.90" waitingTime="0.00" waitingCount="0" stopTime="0.00" timeLoss="4.28" rerouteNo="0" devices="tripinfo_f_sn.0" vType="car" speedFactor="0.94" vaporized=""/>
    <tripinfo id="f_ne.0" depart="3.00" departLane="n2c_0" departPos="5.10" departSpeed="0.00" departDelay="3.00" arrival="44.00" arrivalLane="c2e_0" arrivalPos="189.60" arrivalSpeed="13.77" duration="41.00" routeLength="397.32" waitingTime="2.00" waitingCount="1" stopTime="0.00" timeLoss="11.74" rerouteNo="0" devices="tripinfo_f_ne.0" vType="car" speedFactor="1.03" vaporized=""/>
    <tripinfo id="f_sw.0" depart="6.00" departLane="s2c_0" departPos="5.10" departSpeed="0.00" departDelay="6.00" arrival="44.00" arrivalLane="c2w_0" arrivalPos="189.60" arrivalSpeed="11.67" duration="38.00" routeLength="397.32" waitingTime="0.00" waitingCount="0" stopTime="0.00" timeLoss="4.84" rerouteNo="0" devices="tripinfo_f_sw.0" vType="car" speedFactor="0.89" vaporized=""/>
    <tripinfo id="f_ew.0" depart="0.00" departLane="e2c_0" departPos="5.10" departSpeed="0.00" departDelay="0.00" arrival="47.00" arrivalLane="c2w_1" arrivalPos="189.60" arrivalSpeed="13.54" duration="47.00" routeLength="394.90" waitingTime="7.00" waitingCount="1" stopTime="0.00" timeLoss="18.03" rerouteNo="0" devices="tripinfo_f_ew.0" vType="car" speedFactor="1.01" vaporized=""/>
    <tripinfo id="f_we.0" depart="0.00" departLane="w2c_0" departPos="5.10" departSpeed="0.00" departDelay="0.00" arrival="48.00" arrivalLane="c2e_1" arrivalPos="189.60" arrivalSpeed="13.27" duration="48.00" routeLength="394.90" waitingTime="6.00" waitingCount="1" stopTime="0.00" timeLoss="18.81" rerouteNo="0" devices="tripinfo_f_we.0" vType="car" speedFactor="1.08" vaporized=""/>
    <tripinfo id="f_wn.0" depart="3.00" departLane="w2c_0" departPos="5.10" departSpeed="0.00" departDelay="3.00" arrival="56.00" arrivalLane="c2n_0" arrivalPos="189.60" arrivalSpeed="13.76" duration="53.00" routeLength="397.32" waitingTime="9.00" waitingCount="2" stopTime="0.00" timeLoss="23.92" rerouteNo="0" devices="tripinfo_f_wn.0" vType="car" speedFactor="1.09" vaporized=""/>
    <tripinfo id="f_es.0" depart="6.00" departLane="e2c_0" departPos="5.10" departSpeed="0.00" departDelay="6.00" arrival="59.00" arrivalLane="c2s_0" arrivalPos="189.60" arrivalSpeed="11.86" duration="53.00" routeLength="397.32" waitingTime="4.00" waitingCount="2" stopTime="0.00" timeLoss="18.28" rerouteNo="0" devices="tripinfo_f_es.0" vType="car" speedFactor="0.86" vaporized=""/>
    <tripinfo id="f_se.0" depart="3.00" departLane="s2c_0" departPos="5.10" departSpeed="0.00" departDelay="3.00" arrival="60.00" arrivalLane="c2e_0" arrivalPos="189.60" arrivalSpeed="13.80" duration="57.00" routeLength="385.83" waitingTime="19.00" waitingCount="1" stopTime="0.00" timeLoss="27.87" rerouteNo="0" devices="tripinfo_f_se.0" vType="car" speedFactor="1.05" vaporized=""/>
    <tripinfo id="f_nw.0" depart="6.00" departLane="n2c_0" departPos="5.10" departSpeed="0.00" departDelay="6.00" arrival="63.00" arrivalLane="c2w_0" arrivalPos="189.60" arrivalSpeed="10.65" duration="57.00" routeLength="385.83" waitingTime="13.00" waitingCount="1" stopTime="0.00" timeLoss="21.98" rerouteNo="0" devices="tripinfo_f_nw.0" vType="car" speedFactor="0.83" vaporized=""/>
    <tripinfo id="f_ns.1" depart="9.00" departLane="n2c_0" departPos="5.10" departSpeed="0.00" departDelay="1.80" arrival="63.00" arrivalLane="c2s_1" arrivalPos="189.60" arrivalSpeed="13.74" duration="54.00" routeLength="394.90" waitingTime="13.00" waitingCount="1" stopTime="0.00" timeLoss="25.04" rerouteNo="0" devices="tripinfo_f_ns.1" vType="car" speedFactor="1.05" vaporized=""/>
    <tripinfo id="f_sn.1" depart="9.00" departLane="s2c_0" departPos="5.10" departSpeed="0.00" departDelay="1.80" arrival="63.00" arrivalLane="c2n_1" arrivalPos="189.60" arrivalSpeed="13.39" duration="54.00" routeLength="394.90" waitingTime="14.00" waitingCount="1" stopTime="0.00" timeLoss="24.74" rerouteNo="0" devices="tripinfo_f_sn.1" vType="car" speedFactor="1.12" vaporized=""/>
    <tripinfo id="f_ns.2" depart="15.00" departLane="n2c_0" departPos="5.10" departSpeed="0.00" departDelay="0.60" arrival="65.00" arrivalLane="c2s_1" arrivalPos="189.60" arrivalSpeed="13.10" duration="50.00" routeLength="394.90" waitingTime="10.00" waitingCount="1" stopTime="0.00" timeLoss="20.80" rerouteNo="0" devices="tripinfo_f_ns.2" vType="car" speedFactor="0.99" vaporized=""/>
    <tripinfo id="f_sn.2" depart="15.00" departLane="s2c_0" departPos="5.10" departSpeed="0.00" departDelay="0.60" arrival="66.00" arrivalLane="c2n_1" arrivalPos="189.60" arrivalSpeed="12.57" duration="51.00" routeLength="394.90" waitingTime="8.00" waitingCount="1" stopTime="0.00" timeLoss="19.41" rerouteNo="0" devices="tripinfo_f_sn.2" vType="car" speedFactor="0.93" vaporized=""/>
    <tripinfo id="f_sn.3" depart="22.00" departLane="s2c_0" departPos="5.10" departSpeed="0.00" departDelay="0.40" arrival="67.00" arrivalLane="c2n_1" arrivalPos="189.60" arrivalSpeed="13.64" duration="45.00" routeLength="394.90" waitingTime="2.00" waitingCount="1" stopTime="0.00" timeLoss="16.35" rerouteNo="0" devices="tripinfo_f_sn.3" vType="car" speedFactor="1.16" vaporized=""/>
    <tripinfo id="f_ns.3" depart="22.00" departLane="n2c_0" departPos="5.10" departSpeed="0.00" departDelay="0.40" arrival="68.00" arrivalLane="c2s_1" arrivalPos="189.60" arrivalSpeed="12.26" duration="46.00" routeLength="394.90" waitingTime="4.00" waitingCount="1" stopTime="0.00" timeLoss="14.80" rerouteNo="0" devices="tripinfo_f_ns.3" vType="car" speedFactor="0.94" vaporized=""/>
    <tripinfo id="f_ns.4" depart="29.00" departLane="n2c_0" departPos="5.10" departSpeed="0.00" departDelay="0.20" arrival="69.00" arrivalLane="c2s_1" arrivalPos="189.60" arrivalSpeed="13.68" duration="40.00" routeLength="394.90" waitingTime="0.00" waitingCount="0" stopTime="0.00" timeLoss="11.32" rerouteNo="0" devices="tripinfo_f_ns.4" vType="car" speedFactor="1.02" vaporized=""/>
    <tripinfo id="f_sn.4" depart="29.00" departLane="s2c_0" departPos="5.10" departSpeed="0.00" departDelay="0.20" arrival="69.00" arrivalLane="c2n_1" arrivalPos="189.60" arrivalSpeed="13.81" duration="40.00" routeLength="394.90" waitingTime="0.00" waitingCount="0" stopTime="0.00" timeLoss="11.03" rerouteNo="0" devices="tripinfo_f_sn.4" vType="car" speedFactor="1.01" vaporized=""/>
    <tripinfo id="f_sw.1" depart="35.00" departLane="s2c_0" departPos="5.10" departSpeed="0.00" departDelay="5.00" arrival="72.00" arrivalLane="c2w_0" arrivalPos="189.60" arrivalSpeed="12.80" duration="37.00" routeLength="397.32" waitingTime="0.00" waitingCount="0" stopTime="0.00" timeLoss="5.46" rerouteNo="0" devices="tripinfo_f_sw.1" vType="car" speedFactor="0.95" vaporized=""/>
    <tripinfo id="f_en.0" depart="3.00" departLane="e2c_0" departPos="5.10" departSpeed="0.00" departDelay="3.00" arrival="74.00" arrivalLane="c2n_0" arrivalPos="189.60" arrivalSpeed="12.21" duration="71.00" routeLength="385.83" waitingTime="27.00" waitingCount="2" stopTime="0.00" timeLoss="40.85" rerouteNo="0" devices="tripinfo_f_en.0" vType="car" speedFactor="0.94" vaporized=""/>
    <tripinfo id="f_ws.0" depart="6.00" departLane="w2c_0" departPos="5.10" departSpeed="0.00" departDelay="6.00" arrival="74.00" arrivalLane="c2s_0" arrivalPos="189.60" arrivalSpeed="12.66" duration="68.00" routeLength="385.83" waitingTime="25.00" waitingCount="2" stopTime="0.00" timeLoss="39.29" rerouteNo="0" devices="tripinfo_f_ws.0" vType="car" speedFactor="1.03" vaporized=""/>
    <tripinfo id="f_ne.1" depart="32.00" departLane="n2c_0" departPos="5.10" departSpeed="0.00" departDelay="2.00" arrival="76.00" arrivalLane="c2e_0" arrivalPos="189.60" arrivalSpeed="11.46" duration="44.00" routeLength="397.32" waitingTime="0.00" waitingCount="0" stopTime="0.00" timeLoss="8.22" rerouteNo="0" devices="tripinfo_f_ne.1" vType="car" speedFactor="0.83" vaporized=""/>
    <tripinfo id="f_ew.1" depart="15.00" departLane="e2c_0" departPos="5.10" departSpeed="0.00" departDelay="0.60" arrival="78.00" arrivalLane="c2w_1" arrivalPos="189.60" arrivalSpeed="11.74" duration="63.00" routeLength="394.90" waitingTime="21.00" waitingCount="1" stopTime="0.00" timeLoss="30.16" rerouteNo="0" devices="tripinfo_f_ew.1" vType="car" speedFactor="0.88" vaporized=""/>
    <tripinfo id="f_we.1" depart="15.00" departLane="w2c_0" departPos="5.10" departSpeed="0.00" departDelay="0.60" arrival="78.00" arrivalLane="c2e_1" arrivalPos="189.60" arrivalSpeed="12.31" duration="63.00" routeLength="394.90" waitingTime="20.00" waitingCount="1" stopTime="0.00" timeLoss="32.09" rerouteNo="0" devices="tripinfo_f_we.1" vType="car" speedFactor="0.94" vaporized=""/>
    <tripinfo id="f_ew.2" depart="29.00" departLane="e2c_0" departPos="5.10" departSpeed="0.00" departDelay="0.20" arrival="80.00" arrivalLane="c2w_1" arrivalPos="189.60" arrivalSpeed="13.04" duration="51.00" routeLength="394.90" waitingTime="10.00" waitingCount="1" stopTime="0.00" timeLoss="21.12" rerouteNo="0" devices="tripinfo_f_ew.2" vType="car" speedFactor="0.97" vaporized=""/>
    <tripinfo id="f_we.2" depart="29.00" departLane="w2c_0" departPos="5.10" departSpeed="0.00" departDelay="0.20" arrival="81.00" arrivalLane="c2e_1" arrivalPos="189.60" arrivalSpeed="11.93" duration="52.00" routeLength="394.90" waitingTime="9.00" waitingCount="1" stopTime="0.00" timeLoss="19.12" rerouteNo="0" devices="tripinfo_f_we.2" vType="car" speedFactor="0.89" vaporized=""/>
    <tripinfo id="f_ew.3" depart="44.00" departLane="e2c_0" departPos="5.10" departSpeed="0.00" departDelay="0.80" arrival="81.00" arrivalLane="c2w_1" arrivalPos="189.60" arrivalSpeed="13.42" duration="37.00" routeLength="394.90" waitingTime="0.00" waitingCount="0" stopTime="0.00" timeLoss="8.52" rerouteNo="0" devices="tripinfo_f_ew.3" vType="car" speedFactor="1.01" vaporized=""/>
    <tripinfo id="f_we.3" depart="44.00" departLane="w2c_0" departPos="5.10" departSpeed="0.00" departDelay="0.80" arrival="82.00" arrivalLane="c2e_1" arrivalPos="189.60" arrivalSpeed="12.73" duration="38.00" routeLength="394.90" waitingTime="0.00" waitingCount="0" stopTime="0.00" timeLoss="9.31" rerouteNo="0" devices="tripinfo_f_we.3" vType="car" speedFactor="1.17" vaporized=""/>
    <tripinfo id="f_se.1" depart="32.00" departLane="s2c_0" departPos="5.10" departSpeed="0.00" departDelay="2.00" arrival="89.00" arrivalLane="c2e_0" arrivalPos="189.60" arrivalSpeed="11.45" duration="57.00" routeLength="385.83" waitingTime="13.00" waitingCount="1" stopTime="0.00" timeLoss="25.78" rerouteNo="0" devices="tripinfo_f_se.1" vType="car" speedFactor="0.92" vaporized=""/>
    <tripinfo id="f_nw.1" depart="35.00" departLane="n2c_0" departPos="5.10" departSpeed="0.00" departDelay="5.00" arrival="90.00" arrivalLane="c2w_0" arrivalPos="189.60" arrivalSpeed="11.63" duration="55.00" routeLength="385.83" waitingTime="13.00" waitingCount="1" stopTime="0.00" timeLoss="22.27" rerouteNo="0" devices="tripinfo_f_nw.1" vType="car" speedFactor="0.87" vaporized=""/>
    <tripinfo id="f_ns.5" depart="38.00" departLane="n2c_0" departPos="5.10" departSpeed="0.00" departDelay="2.00" arrival="90.00" arrivalLane="c2s_1" arrivalPos="189.60" arrivalSpeed="12.70" duration="52.00" routeLength="394.90" waitingTime="12.00" waitingCount="1" stopTime="0.00" timeLoss="23.52" rerouteNo="0" devices="tripinfo_f_ns.5" vType="car" speedFactor="1.13" vaporized=""/>
    <tripinfo id="f_sn.5" depart="38.00" departLane="s2c_0" departPos="5.10" departSpeed="0.00" departDelay="2.00" arrival="91.00" arrivalLane="c2n_1" arrivalPos="189.60" arrivalSpeed="12.70" duration="53.00" routeLength="394.90" waitingTime="12.00" waitingCount="1" stopTime="0.00" timeLoss="22.04" rerouteNo="0" devices="tripinfo_f_sn.5" vType="car" speedFactor="0.93" vaporized=""/>
    <tripinfo id="f_ns.6" depart="44.00" departLane="n2c_0" departPos="5.10" departSpeed="0.00" departDelay="0.80" arrival="93.00" arrivalLane="c2s_1" arrivalPos="189.60" arrivalSpeed="13.28" duration="49.00" routeLength="394.90" waitingTime="9.00" waitingCount="1" stopTime="0.00" timeLoss="19.68" rerouteNo="0" devices="tripinfo_f_ns.6" vType="car" speedFactor="1.18" vaporized=""/>
    <tripinfo id="f_sn.6" depart="44.00" departLane="s2c_0" departPos="5.10" departSpeed="0.00" departDelay="0.80" arrival="93.00" arrivalLane="c2n_1" arrivalPos="189.60" arrivalSpeed="13.38" duration="49.00" routeLength="394.90" waitingTime="8.00" waitingCount="1" stopTime="0.00" timeLoss="19.89" rerouteNo="0" devices="tripinfo_f_sn.6" vType="car" speedFactor="1.15" vaporized=""/>
    <tripinfo id="f_ns.7" depart="51.00" departLane="n2c_0" departPos="5.10" departSpeed="0.00" departDelay="0.60" arrival="94.00" arrivalLane="c2s_1" arrivalPos="189.60" arrivalSpeed="13.73" duration="43.00" routeLength="394.90" waitingTime="3.00" waitingCount="1" stopTime="0.00" timeLoss="14.22" rerouteNo="0" devices="tripinfo_f_ns.7" vType="car" speedFactor="0.99" vaporized=""/>
    <tripinfo id="f_sn.7" depart="51.00" departLane="s2c_0" departPos="5.10" departSpeed="0.00" departDelay="0.60" arrival="95.00" arrivalLane="c2n_1" arrivalPos="189.60" arrivalSpeed="13.05" duration="44.00" routeLength="394.90" waitingTime="5.00" waitingCount="1" stopTime="0.00" timeLoss="14.65" rerouteNo="0" devices="tripinfo_f_sn.7" vType="car" speedFactor="1.02" vaporized=""/>
    <tripinfo id="f_sn.8" depart="58.00" departLane="s2c_0" departPos="5.10" departSpeed="0.00" departDelay="0.40" arrival="96.00" arrivalLane="c2n_1" arrivalPos="189.60" arrivalSpeed="13.44" duration="38.00" routeLength="394.90" waitingTime="0.00" waitingCount="0" stopTime="0.00" timeLoss="9.32" rerouteNo="0" devices="tripinfo_f_sn.8" vType="car" speedFactor="1.18" vaporized=""/>
    <tripinfo id="f_ns.8" depart="58.00" departLane="n2c_0" departPos="5.10" departSpeed="0.00" departDelay="0.40" arrival="97.00" arrivalLane="c2s_1" arrivalPos="189.60" arrivalSpeed="12.23" duration="39.00" routeLength="394.90" waitingTime="0.00" waitingCount="0" stopTime="0.00" timeLoss="8.97" rerouteNo="0" devices="tripinfo_f_ns.8" vType="car" speedFactor="0.97" vaporized=""/>
    <tripinfo id="f_sw.2" depart="64.00" departLane="s2c_0" departPos="5.10" departSpeed="0.00" departDelay="4.00" arrival="99.00" arrivalLane="c2w_0" arrivalPos="189.60" arrivalSpeed="13.36" duration="35.00" routeLength="397.32" waitingTime="0.00" waitingCount="0" stopTime="0.00" timeLoss="5.10" rerouteNo="0" devices="tripinfo_f_sw.2" vType="car" speedFactor="1.04" vaporized=""/>
    <tripinfo id="f_ne.2" depart="61.00" departLane="n2c_0" departPos="5.10" departSpeed="0.00" departDelay="1.00" arrival="103.00" arrivalLane="c2e_0" arrivalPos="189.60" arrivalSpeed="12.69" duration="42.00" routeLength="397.32" waitingTime="2.00" waitingCount="1" stopTime="0.00" timeLoss="12.04" rerouteNo="0" devices="tripinfo_f_ne.2" vType="car" speedFactor="1.03" vaporized=""/>
    <tripinfo id="f_ew.4" depart="58.00" departLane="e2c_0" departPos="5.10" departSpeed="0.00" departDelay="0.40" arrival="105.00" arrivalLane="c2w_1" arrivalPos="189.60" arrivalSpeed="12.89" duration="47.00" routeLength="394.90" waitingTime="7.00" waitingCount="1" stopTime="0.00" timeLoss="18.20" rerouteNo="0" devices="tripinfo_f_ew.4" vType="car" speedFactor="1.10" vaporized=""/>
    <tripinfo id="f_we.4" depart="58.00" departLane="w2c_0" departPos="5.10" departSpeed="0.00" departDelay="0.40" arrival="107.00" arrivalLane="c2e_1" arrivalPos="189.60" arrivalSpeed="11.42" duration="49.00" routeLength="394.90" waitingTime="5.00" waitingCount="1" stopTime="0.00" timeLoss="16.71" rerouteNo="0" devices="tripinfo_f_we.4" vType="car" speedFactor="0.90" vaporized=""/>
    <tripinfo id="f_es.1" depart="64.00" departLane="e2c_0" departPos="5.10" departSpeed="0.00" departDelay="4.00" arrival="114.00" arrivalLane="c2s_0" arrivalPos="189.60" arrivalSpeed="13.71" duration="50.00" routeLength="397.32" waitingTime="9.00" waitingCount="2" stopTime="0.00" timeLoss="20.76" rerouteNo="0" devices="tripinfo_f_es.1" vType="car" speedFactor="1.09" vaporized=""/>
    <tripinfo id="f_wn.1" depart="61.00" departLane="w2c_0" departPos="5.10" departSpeed="0.00" departDelay="1.00" arrival="114.00" arrivalLane="c2n_0" arrivalPos="189.60" arrivalSpeed="13.60" duration="53.00" routeLength="397.32" waitingTime="9.00" waitingCount="3" stopTime="0.00" timeLoss="23.31" rerouteNo="0" devices="tripinfo_f_wn.1" vType="car" speedFactor="1.00" vaporized=""/>
    <tripinfo id="f_se.2" depart="61.00" departLane="s2c_0" departPos="5.10" departSpeed="0.00" departDelay="1.00" arrival="118.00" arrivalLane="c2e_0" arrivalPos="189.60" arrivalSpeed="13.28" duration="57.00" routeLength="385.83" waitingTime="16.00" waitingCount="1" stopTime="0.00" timeLoss="27.75" rerouteNo="0" devices="tripinfo_f_se.2" vType="car" speedFactor="1.09" vaporized=""/>
    <tripinfo id="f_nw.2" depart="64.00" departLane="n2c_0" departPos="5.10" departSpeed="0.00" departDelay="4.00" arrival="119.00" arrivalLane="c2w_0" arrivalPos="189.60" arrivalSpeed="12.55" duration="55.00" routeLength="385.83" waitingTime="13.00" waitingCount="1" stopTime="0.00" timeLoss="24.42" rerouteNo="0" devices="tripinfo_f_nw.2" vType="car" speedFactor="0.96" vaporized=""/>
    <tripinfo id="f_ns.9" depart="67.00" departLane="n2c_0" departPos="5.10" departSpeed="0.00" departDelay="2.20" arrival="122.00" arrivalLane="c2s_1" arrivalPos="189.60" arrivalSpeed="11.44" duration="55.00" routeLength="394.90" waitingTime="11.00" waitingCount="1" stopTime="0.00" timeLoss="22.39" rerouteNo="0" devices="tripinfo_f_ns.9" vType="car" speedFactor="0.88" vaporized=""/>
    <tripinfo id="f_sn.9" depart="67.00" departLane="s2c_0" departPos="5.10" departSpeed="0.00" departDelay="2.20" arrival="122.00" arrivalLane="c2n_1" arrivalPos="189.60" arrivalSpeed="11.76" duration="55.00" routeLength="394.90" waitingTime="14.00" waitingCount="1" stopTime="0.00" timeLoss="21.44" rerouteNo="0" devices="tripinfo_f_sn.9" vType="car" speedFactor="0.85" vaporized=""/>
    <tripinfo id="f_sn.10" depart="72.00" departLane="s2c_0" departPos="5.10" departSpeed="0.00" departDelay="0.00" arrival="124.00" arrivalLane="c2n_1" arrivalPos="189.60" arrivalSpeed="13.61" duration="52.00" routeLength="394.90" waitingTime="10.00" waitingCount="1" stopTime="0.00" timeLoss="23.12" rerouteNo="0" devices="tripinfo_f_sn.10" vType="car" speedFactor="1.17" vaporized=""/>
    <tripinfo id="f_ns.10" depart="72.00" departLane="n2c_0" departPos="5.10" departSpeed="0.00" departDelay="0.00" arrival="125.00" arrivalLane="c2s_1" arrivalPos="189.60" arrivalSpeed="10.91" duration="53.00" routeLength="394.90" waitingTime="10.00" waitingCount="1" stopTime="0.00" timeLoss="18.89" rerouteNo="0" devices="tripinfo_f_ns.10" vType="car" speedFactor="0.85" vaporized=""/>
    <tripinfo id="f_ns.11" depart="80.00" departLane="n2c_0" departPos="5.10" departSpeed="0.00" departDelay="0.80" arrival="126.00" arrivalLane="c2s_1" arrivalPos="189.60" arrivalSpeed="13.73" duration="46.00" routeLength="394.90" waitingTime="6.00" waitingCount="1" stopTime="0.00" timeLoss="17.32" rerouteNo="0" devices="tripinfo_f_ns.11" vType="car" speedFactor="1.00" vaporized=""/>
    <tripinfo id="f_sn.11" depart="80.00" departLane="s2c_0" departPos="5.10" departSpeed="0.00" departDelay="0.80" arrival="126.00" arrivalLane="c2n_1" arrivalPos="189.60" arrivalSpeed="12.84" duration="46.00" routeLength="394.90" waitingTime="3.00" waitingCount="1" stopTime="0.00" timeLoss="16.82" rerouteNo="0" devices="tripinfo_f_sn.11" vType="car" speedFactor="1.00" vaporized=""/>
    <tripinfo id="f_sn.12" depart="87.00" departLane="s2c_0" departPos="5.10" departSpeed="0.00" departDelay="0.60" arrival="127.00" arrivalLane="c2n_1" arrivalPos="189.60" arrivalSpeed="13.54" duration="40.00" routeLength="394.90" waitingTime="0.00" waitingCount="0" stopTime="0.00" timeLoss="11.51" rerouteNo="0" devices="tripinfo_f_sn.12" vType="car" speedFactor="1.14" vaporized=""/>
    <tripinfo id="f_ns.12" depart="87.00" departLane="n2c_0" departPos="5.10" departSpeed="0.00" departDelay="0.60" arrival="128.00" arrivalLane="c2s_1" arrivalPos="189.60" arrivalSpeed="11.76" duration="41.00" routeLength="394.90" waitingTime="0.00" waitingCount="0" stopTime="0.00" timeLoss="9.08" rerouteNo="0" devices="tripinfo_f_ns.12" vType="car" speedFactor="0.90" vaporized=""/>
    <tripinfo id="f_sw.3" depart="93.00" departLane="s2c_0" departPos="5.10" departSpeed="0.00" departDelay="3.00" arrival="129.00" arrivalLane="c2w_0" arrivalPos="189.60" arrivalSpeed="13.37" duration="36.00" routeLength="397.32" waitingTime="0.00" waitingCount="0" stopTime="0.00" timeLoss="5.77" rerouteNo="0" devices="tripinfo_f_sw.3" vType="car" speedFactor="0.99" vaporized=""/>
    <tripinfo id="f_en.1" depart="61.00" departLane="e2c_0" departPos="5.10" departSpeed="0.00" departDelay="1.00" arrival="131.00" arrivalLane="c2n_0" arrivalPos="189.60" arrivalSpeed="13.26" duration="70.00" routeLength="385.83" waitingTime="29.00" waitingCount="2" stopTime="0.00" timeLoss="41.48" rerouteNo="0" devices="tripinfo_f_en.1" vType="car" speedFactor="1.04" vaporized=""/>
    <tripinfo id="f_ne.3" depart="90.00" departLane="n2c_0" departPos="5.10" departSpeed="0.00" departDelay="0.00" arrival="131.00" arrivalLane="c2e_0" arrivalPos="189.60" arrivalSpeed="12.86" duration="41.00" routeLength="397.32" waitingTime="3.00" waitingCount="1" stopTime="0.00" timeLoss="11.70" rerouteNo="0" devices="tripinfo_f_ne.3" vType="car" speedFactor="1.08" vaporized=""/>
    <tripinfo id="f_ws.1" depart="64.00" departLane="w2c_0" departPos="5.10" departSpeed="0.00" departDelay="4.00" arrival="133.00" arrivalLane="c2s_0" arrivalPos="189.60" arrivalSpeed="12.14" duration="69.00" routeLength="385.83" waitingTime="26.00" waitingCount="2" stopTime="0.00" timeLoss="37.12" rerouteNo="0" devices="tripinfo_f_ws.1" vType="car" speedFactor="0.90" vaporized=""/>
    <tripinfo id="f_we.5" depart="72.00" departLane="w2c_0" departPos="5.10" departSpeed="0.00" departDelay="0.00" arrival="134.00" arrivalLane="c2e_1" arrivalPos="189.60" arrivalSpeed="10.04" duration="62.00" routeLength="394.90" waitingTime="22.00" waitingCount="1" stopTime="0.00" timeLoss="33.26" rerouteNo="0" devices="tripinfo_f_we.5" vType="car" speedFactor="1.10" vaporized=""/>
    <tripinfo id="f_ew.5" depart="72.00" departLane="e2c_0" departPos="5.10" departSpeed="0.00" departDelay="0.00" arrival="135.00" arrivalLane="c2w_1" arrivalPos="189.60" arrivalSpeed="13.81" duration="63.00" routeLength="394.90" waitingTime="22.00" waitingCount="1" stopTime="0.00" timeLoss="33.64" rerouteNo="0" devices="tripinfo_f_ew.5" vType="car" speedFactor="1.02" vaporized=""/>
    <tripinfo id="f_ew.6" depart="87.00" departLane="e2c_0" departPos="5.10" departSpeed="0.00" departDelay="0.60" arrival="136.00" arrivalLane="c2w_1" arrivalPos="189.60" arrivalSpeed="13.89" duration="49.00" routeLength="394.90" waitingTime="9.00" waitingCount="1" stopTime="0.00" timeLoss="20.36" rerouteNo="0" devices="tripinfo_f_ew.6" vType="car" speedFactor="1.02" vaporized=""/>
    <tripinfo id="f_we.6" depart="87.00" departLane="w2c_0" departPos="5.10" departSpeed="0.00" departDelay="0.60" arrival="136.00" arrivalLane="c2e_1" arrivalPos="189.60" arrivalSpeed="13.33" duration="49.00" routeLength="394.90" waitingTime="10.00" waitingCount="1" stopTime="0.00" timeLoss="19.57" rerouteNo="0" devices="tripinfo_f_we.6" vType="car" speedFactor="0.97" vaporized=""/>
    <tripinfo id="f_ew.7" depart="101.00" departLane="e2c_0" departPos="5.10" departSpeed="0.00" departDelay="0.20" arrival="138.00" arrivalLane="c2w_1" arrivalPos="189.60" arrivalSpeed="12.64" duration="37.00" routeLength="394.90" waitingTime="0.00" waitingCount="0" stopTime="0.00" timeLoss="8.54" rerouteNo="0" devices="tripinfo_f_ew.7" vType="car" speedFactor="1.04" vaporized=""/>
    <tripinfo id="f_we.7" depart="101.00" departLane="w2c_0" departPos="5.10" departSpeed="0.00" departDelay="0.20" arrival="138.00" arrivalLane="c2e_1" arrivalPos="189.60" arrivalSpeed="12.83" duration="37.00" routeLength="394.90" waitingTime="0.00" waitingCount="0" stopTime="0.00" timeLoss="8.21" rerouteNo="0" devices="tripinfo_f_we.7" vType="car" speedFactor="1.02" vaporized=""/>
    <tripinfo id="f_nw.3" depart="93.00" departLane="n2c_0" departPos="5.10" departSpeed="0.00" departDelay="3.00" arrival="146.00" arrivalLane="c2w_0" arrivalPos="189.60" arrivalSpeed="12.63" duration="53.00" routeLength="385.83" waitingTime="13.00" waitingCount="1" stopTime="0.00" timeLoss="24.08" rerouteNo="0" devices="tripinfo_f_nw.3" vType="car" speedFactor="1.12" vaporized=""/>
    <tripinfo id="f_se.3" depart="90.00" departLane="s2c_0" departPos="5.10" departSpeed="0.00" departDelay="0.00" arrival="146.00" arrivalLane="c2e_0" arrivalPos="189.60" arrivalSpeed="13.62" duration="56.00" routeLength="385.83" waitingTime="13.00" waitingCount="1" stopTime="0.00" timeLoss="26.83" rerouteNo="0" devices="tripinfo_f_se.3" vType="car" speedFactor="1.02" vaporized=""/>
    <tripinfo id="f_ns.13" depart="96.00" departLane="n2c_0" departPos="5.10" departSpeed="0.00" departDelay="2.40" arrival="149.00" arrivalLane="c2s_1" arrivalPos="189.60" arrivalSpeed="12.91" duration="53.00" routeLength="394.90" waitingTime="13.00" waitingCount="1" stopTime="0.00" timeLoss="22.07" rerouteNo="0" devices="tripinfo_f_ns.13" vType="car" speedFactor="0.94" vaporized=""/>
    <tripinfo id="f_sn.13" depart="96.00" departLane="s2c_0" departPos="5.10" departSpeed="0.00" departDelay="2.40" arrival="151.00" arrivalLane="c2n_1" arrivalPos="189.60" arrivalSpeed="11.57" duration="55.00" routeLength="394.90" waitingTime="12.00" waitingCount="1" stopTime="0.00" timeLoss="22.04" rerouteNo="0" devices="tripinfo_f_sn.13" vType="car" speedFactor="0.88" vaporized=""/>
    <tripinfo id="f_ns.14" depart="101.00" departLane="n2c_0" departPos="5.10" departSpeed="0.00" departDelay="0.20" arrival="152.00" arrivalLane="c2s_1" arrivalPos="189.60" arrivalSpeed="12.48" duration="51.00" routeLength="394.90" waitingTime="7.00" waitingCount="1" stopTime="0.00" timeLoss="19.44" rerouteNo="0" devices="tripinfo_f_ns.14" vType="car" speedFactor="0.91" vaporized=""/>
    <tripinfo id="f_sn.14" depart="101.00" departLane="s2c_0" departPos="5.10" departSpeed="0.00" departDelay="0.20" arrival="152.00" arrivalLane="c2n_1" arrivalPos="189.60" arrivalSpeed="12.55" duration="51.00" routeLength="394.90" waitingTime="9.00" waitingCount="1" stopTime="0.00" timeLoss="19.92" rerouteNo="0" devices="tripinfo_f_sn.14" vType="car" speedFactor="0.91" vaporized=""/>
    <tripinfo id="f_ns.15" depart="108.00" departLane="n2c_0" departPos="5.10" departSpeed="0.00" departDelay="0.00" arrival="154.00" arrivalLane="c2s_1" arrivalPos="189.60" arrivalSpeed="8.64" duration="46.00" routeLength="394.90" waitingTime="4.00" waitingCount="1" stopTime="0.00" timeLoss="17.40" rerouteNo="0" devices="tripinfo_f_ns.15" vType="car" speedFactor="1.02" vaporized=""/>
    <tripinfo id="f_sn.15" depart="108.00" departLane="s2c_0" departPos="5.10" departSpeed="0.00" departDelay="0.00" arrival="154.00" arrivalLane="c2n_1" arrivalPos="189.60" arrivalSpeed="12.89" duration="46.00" routeLength="394.90" waitingTime="5.00" waitingCount="1" stopTime="0.00" timeLoss="16.51" rerouteNo="0" devices="tripinfo_f_sn.15" vType="car" speedFactor="0.97" vaporized=""/>
    <tripinfo id="f_ns.16" depart="116.00" departLane="n2c_0" departPos="5.10" departSpeed="0.00" departDelay="0.80" arrival="156.00" arrivalLane="c2s_1" arrivalPos="189.60" arrivalSpeed="11.88" duration="40.00" routeLength="394.90" waitingTime="0.00" waitingCount="0" stopTime="0.00" timeLoss="9.15" rerouteNo="0" devices="tripinfo_f_ns.16" vType="car" speedFactor="0.94" vaporized=""/>
    <tripinfo id="f_sn.16" depart="116.00" departLane="s2c_0" departPos="5.10" departSpeed="0.00" departDelay="0.80" arrival="156.00" arrivalLane="c2n_1" arrivalPos="189.60" arrivalSpeed="13.79" duration="40.00" routeLength="394.90" waitingTime="0.00" waitingCount="0" stopTime="0.00" timeLoss="10.96" rerouteNo="0" devices="tripinfo_f_sn.16" vType="car" speedFactor="1.06" vaporized=""/>