<?xml version="1.0" encoding="UTF-8"?>

<!-- generated on 2026-05-20T00:04:02.766501+05:30 by Eclipse SUMO sumo 1.26.0
<sumoConfiguration xmlns:xsi="http://www.w3.org/2001/XMLSchema-instance" xsi:noNamespaceSchemaLocation="http://sumo.dlr.de/xsd/sumoConfiguration.xsd">

    <input>
        <net-file value="/Users/nitishpatil/Projects/trafficsense/src/signals/network/intersection.net.xml"/>
        <route-files value="/Users/nitishpatil/Projects/trafficsense/src/signals/network/routes.rou.xml"/>
    </input>

    <output>
        <tripinfo-output value="/Users/nitishpatil/Projects/trafficsense/src/signals/adaptive_tripinfo.xml"/>
    </output>

    <time>
        <begin value="0"/>
        <end value="600"/>
    </time>

    <report>
        <verbose value="false"/>
        <no-warnings value="true"/>
        <no-step-log value="true"/>
    </report>

    <traci_server>
        <remote-port value="52734"/>
    </traci_server>

</sumoConfiguration>
-->

<tripinfos xmlns:xsi="http://www.w3.org/2001/XMLSchema-instance" xsi:noNamespaceSchemaLocation="http://sumo.dlr.de/xsd/tripinfo_file.xsd">
    <tripinfo id="f_ns.0" depart="0.00" departLane="n2c_0" departPos="5.10" departSpeed="0.00" departDelay="0.00" arrival="34.00" arrivalLane="c2s_1" arrivalPos="189.60" arrivalSpeed="8.97" duration="34.00" routeLength="394.90" waitingTime="0.00" waitingCount="0" stopTime="0.00" timeLoss="5.01" rerouteNo="0" devices="tripinfo_f_ns.0" vType="car" speedFactor="1.06" vaporized=""/>
    <tripinfo id="f_sn.0" depart="0.00" departLane="s2c_0" departPos="5.10" departSpeed="0.00" departDelay="0.00" arrival="35.00" arrivalLane="c2n_1" arrivalPos="189.60" arrivalSpeed="12.48" duration="35.00" routeLength="394.90" waitingTime="0.00" waitingCount="0" stopTime="0.00" timeLoss="4.22" rerouteNo="0" devices="tripinfo_f_sn.0" vType="car" speedFactor="0.94" vaporized=""/>
    <tripinfo id="f_ne.0" depart="3.00" departLane="n2c_0" departPos="5.10" departSpeed="0.00" departDelay="3.00" arrival="38.00" arrivalLane="c2e_0" arrivalPos="189.60" arrivalSpeed="13.77" duration="35.00" routeLength="397.32" waitingTime="0.00" waitingCount="0" stopTime="0.00" timeLoss="5.49" rerouteNo="0" devices="tripinfo_f_ne.0" vType="car" speedFactor="1.03" vaporized=""/>
    <tripinfo id="f_ew.0" depart="0.00" departLane="e2c_0" departPos="5.10" departSpeed="0.00" departDelay="0.00" arrival="43.00" arrivalLane="c2w_1" arrivalPos="189.60" arrivalSpeed="13.54" duration="43.00" routeLength="394.90" waitingTime="5.00" waitingCount="1" stopTime="0.00" timeLoss="14.17" rerouteNo="0" devices="tripinfo_f_ew.0" vType="car" speedFactor="1.01" vaporized=""/>
    <tripinfo id="f_we.0" depart="0.00" departLane="w2c_0" departPos="5.10" departSpeed="0.00" departDelay="0.00" arrival="44.00" arrivalLane="c2e_1" arrivalPos="189.60" arrivalSpeed="13.27" duration="44.00" routeLength="394.90" waitingTime="5.00" waitingCount="1" stopTime="0.00" timeLoss="14.73" rerouteNo="0" devices="tripinfo_f_we.0" vType="car" speedFactor="1.08" vaporized=""/>
    <tripinfo id="f_wn.0" depart="3.00" departLane="w2c_0" departPos="5.10" departSpeed="0.00" departDelay="3.00" arrival="53.00" arrivalLane="c2n_0" arrivalPos="189.60" arrivalSpeed="13.76" duration="50.00" routeLength="397.32" waitingTime="5.00" waitingCount="3" stopTime="0.00" timeLoss="20.92" rerouteNo="0" devices="tripinfo_f_wn.0" vType="car" speedFactor="1.09" vaporized=""/>
    <tripinfo id="f_es.0" depart="6.00" departLane="e2c_0" departPos="5.10" departSpeed="0.00" departDelay="6.00" arrival="56.00" arrivalLane="c2s_0" arrivalPos="189.60" arrivalSpeed="11.86" duration="50.00" routeLength="397.32" waitingTime="4.00" waitingCount="2" stopTime="0.00" timeLoss="14.98" rerouteNo="0" devices="tripinfo_f_es.0" vType="car" speedFactor="0.86" vaporized=""/>
    <tripinfo id="f_nw.0" depart="6.00" departLane="n2c_0" departPos="5.10" departSpeed="0.00" departDelay="6.00" arrival="59.00" arrivalLane="c2w_0" arrivalPos="189.60" arrivalSpeed="10.41" duration="53.00" routeLength="385.83" waitingTime="11.00" waitingCount="1" stopTime="0.00" timeLoss="18.74" rerouteNo="0" devices="tripinfo_f_nw.0" vType="car" speedFactor="0.83" vaporized=""/>
    <tripinfo id="f_ns.1" depart="9.00" departLane="n2c_0" departPos="5.10" departSpeed="0.00" departDelay="3.86" arrival="59.00" arrivalLane="c2s_1" arrivalPos="189.60" arrivalSpeed="13.01" duration="50.00" routeLength="394.90" waitingTime="9.00" waitingCount="1" stopTime="0.00" timeLoss="20.98" rerouteNo="0" devices="tripinfo_f_ns.1" vType="car" speedFactor="1.05" vaporized=""/>
    <tripinfo id="f_ns.2" depart="12.00" departLane="n2c_0" departPos="5.10" departSpeed="0.00" departDelay="1.71" arrival="61.00" arrivalLane="c2s_1" arrivalPos="189.60" arrivalSpeed="12.88" duration="49.00" routeLength="394.90" waitingTime="9.00" waitingCount="1" stopTime="0.00" timeLoss="19.86" rerouteNo="0" devices="tripinfo_f_ns.2" vType="car" speedFactor="0.99" vaporized=""/>
    <tripinfo id="f_ns.3" depart="16.00" departLane="n2c_0" departPos="5.10" departSpeed="0.00" departDelay="0.57" arrival="64.00" arrivalLane="c2s_1" arrivalPos="189.60" arrivalSpeed="9.81" duration="48.00" routeLength="394.90" waitingTime="6.00" waitingCount="1" stopTime="0.00" timeLoss="17.32" rerouteNo="0" devices="tripinfo_f_ns.3" vType="car" speedFactor="0.94" vaporized=""/>
    <tripinfo id="f_ns.4" depart="21.00" departLane="n2c_0" departPos="5.10" departSpeed="0.00" departDelay="0.43" arrival="66.00" arrivalLane="c2s_1" arrivalPos="189.60" arrivalSpeed="13.47" duration="45.00" routeLength="394.90" waitingTime="3.00" waitingCount="1" stopTime="0.00" timeLoss="15.86" rerouteNo="0" devices="tripinfo_f_ns.4" vType="car" speedFactor="1.02" vaporized=""/>
    <tripinfo id="f_ns.5" depart="26.00" departLane="n2c_0" departPos="5.10" departSpeed="0.00" departDelay="0.29" arrival="70.00" arrivalLane="c2s_1" arrivalPos="189.60" arrivalSpeed="11.17" duration="44.00" routeLength="394.90" waitingTime="0.00" waitingCount="0" stopTime="0.00" timeLoss="8.81" rerouteNo="0" devices="tripinfo_f_ns.5" vType="car" speedFactor="0.83" vaporized=""/>
    <tripinfo id="f_sw.0" depart="6.00" departLane="s2c_0" departPos="5.10" departSpeed="0.00" departDelay="6.00" arrival="79.00" arrivalLane="c2w_0" arrivalPos="189.60" arrivalSpeed="11.64" duration="73.00" routeLength="397.32" waitingTime="28.00" waitingCount="2" stopTime="0.00" timeLoss="39.90" rerouteNo="0" devices="tripinfo_f_sw.0" vType="car" speedFactor="0.89" vaporized=""/>
    <tripinfo id="f_se.0" depart="3.00" departLane="s2c_0" departPos="5.10" departSpeed="0.00" departDelay="3.00" arrival="81.00" arrivalLane="c2e_0" arrivalPos="189.60" arrivalSpeed="13.66" duration="78.00" routeLength="385.83" waitingTime="39.00" waitingCount="2" stopTime="0.00" timeLoss="49.42" rerouteNo="0" devices="tripinfo_f_se.0" vType="car" speedFactor="1.05" vaporized=""/>
    <tripinfo id="f_sw.1" depart="33.00" departLane="s2c_0" departPos="5.10" departSpeed="0.00" departDelay="3.00" arrival="81.00" arrivalLane="c2w_0" arrivalPos="189.60" arrivalSpeed="12.55" duration="48.00" routeLength="397.32" waitingTime="4.00" waitingCount="1" stopTime="0.00" timeLoss="16.26" rerouteNo="0" devices="tripinfo_f_sw.1" vType="car" speedFactor="0.93" vaporized=""/>
    <tripinfo id="f_sn.1" depart="9.00" departLane="s2c_0" departPos="5.10" departSpeed="0.00" departDelay="3.86" arrival="84.00" arrivalLane="c2n_1" arrivalPos="189.60" arrivalSpeed="13.02" duration="75.00" routeLength="394.90" waitingTime="33.00" waitingCount="2" stopTime="0.00" timeLoss="45.95" rerouteNo="0" devices="tripinfo_f_sn.1" vType="car" speedFactor="1.12" vaporized=""/>
    <tripinfo id="f_sn.2" depart="12.00" departLane="s2c_0" departPos="5.10" departSpeed="0.00" departDelay="1.71" arrival="87.00" arrivalLane="c2n_1" arrivalPos="189.60" arrivalSpeed="8.36" duration="75.00" routeLength="394.90" waitingTime="33.00" waitingCount="2" stopTime="0.00" timeLoss="44.13" rerouteNo="0" devices="tripinfo_f_sn.2" vType="car" speedFactor="0.93" vaporized=""/>
    <tripinfo id="f_sn.3" depart="16.00" departLane="s2c_0" departPos="5.10" departSpeed="0.00" departDelay="0.57" arrival="89.00" arrivalLane="c2n_1" arrivalPos="189.60" arrivalSpeed="13.22" duration="73.00" routeLength="394.90" waitingTime="30.00" waitingCount="2" stopTime="0.00" timeLoss="43.74" rerouteNo="0" devices="tripinfo_f_sn.3" vType="car" speedFactor="1.16" vaporized=""/>
    <tripinfo id="f_sn.4" depart="21.00" departLane="s2c_0" departPos="5.10" departSpeed="0.00" departDelay="0.43" arrival="90.00" arrivalLane="c2n_1" arrivalPos="189.60" arrivalSpeed="13.07" duration="69.00" routeLength="394.90" waitingTime="27.00" waitingCount="2" stopTime="0.00" timeLoss="40.39" rerouteNo="0" devices="tripinfo_f_sn.4" vType="car" speedFactor="1.01" vaporized=""/>
    <tripinfo id="f_sn.5" depart="26.00" departLane="s2c_0" departPos="5.10" departSpeed="0.00" departDelay="0.29" arrival="94.00" arrivalLane="c2n_1" arrivalPos="189.60" arrivalSpeed="11.35" duration="68.00" routeLength="394.90" waitingTime="22.00" waitingCount="1" stopTime="0.00" timeLoss="34.61" rerouteNo="0" devices="tripinfo_f_sn.5" vType="car" speedFactor="0.87" vaporized=""/>
    <tripinfo id="f_sw.2" depart="63.00" departLane="s2c_0" departPos="5.10" departSpeed="0.00" departDelay="3.00" arrival="97.00" arrivalLane="c2w_0" arrivalPos="189.60" arrivalSpeed="13.86" duration="34.00" routeLength="397.32" waitingTime="0.00" waitingCount="0" stopTime="0.00" timeLoss="4.24" rerouteNo="0" devices="tripinfo_f_sw.2" vType="car" speedFactor="1.17" vaporized=""/>
    <tripinfo id="f_ne.1" depart="30.00" departLane="n2c_0" departPos="5.10" departSpeed="0.00" departDelay="0.00" arrival="101.00" arrivalLane="c2e_0" arrivalPos="189.60" arrivalSpeed="12.20" duration="71.00" routeLength="397.32" waitingTime="31.00" waitingCount="1" stopTime="0.00" timeLoss="39.00" rerouteNo="0" devices="tripinfo_f_ne.1" vType="car" speedFactor="0.92" vaporized=""/>
    <tripinfo id="f_es.1" depart="63.00" departLane="e2c_0" departPos="5.10" departSpeed="0.00" departDelay="3.00" arrival="111.00" arrivalLane="c2s_0" arrivalPos="189.60" arrivalSpeed="13.12" duration="48.00" routeLength="397.32" waitingTime="6.00" waitingCount="1" stopTime="0.00" timeLoss="18.66" rerouteNo="0" devices="tripinfo_f_es.1" vType="car" speedFactor="1.10" vaporized=""/>
    <tripinfo id="f_wn.1" depart="60.00" departLane="w2c_0" departPos="5.10" departSpeed="0.00" departDelay="0.00" arrival="112.00" arrivalLane="c2n_0" arrivalPos="189.60" arrivalSpeed="13.30" duration="52.00" routeLength="397.32" waitingTime="9.00" waitingCount="2" stopTime="0.00" timeLoss="22.26" rerouteNo="0" devices="tripinfo_f_wn.1" vType="car" speedFactor="1.00" vaporized=""/>
    <tripinfo id="f_ws.0" depart="6.00" departLane="w2c_0" departPos="5.10" departSpeed="0.00" departDelay="6.00" arrival="115.00" arrivalLane="c2s_0" arrivalPos="189.60" arrivalSpeed="12.68" duration="109.00" routeLength="385.83" waitingTime="68.00" waitingCount="1" stopTime="0.00" timeLoss="80.11" rerouteNo="0" devices="tripinfo_f_ws.0" vType="car" speedFactor="1.03" vaporized=""/>
    <tripinfo id="f_en.0" depart="3.00" departLane="e2c_0" departPos="5.10" departSpeed="0.00" departDelay="3.00" arrival="116.00" arrivalLane="c2n_0" arrivalPos="189.60" arrivalSpeed="12.78" duration="113.00" routeLength="385.83" waitingTime="71.00" waitingCount="2" stopTime="0.00" timeLoss="82.31" rerouteNo="0" devices="tripinfo_f_en.0" vType="car" speedFactor="0.94" vaporized=""/>
    <tripinfo id="f_se.1" depart="30.00" departLane="s2c_0" departPos="5.10" departSpeed="0.00" departDelay="0.00" arrival="119.00" arrivalLane="c2e_0" arrivalPos="189.60" arrivalSpeed="13.83" duration="89.00" routeLength="385.83" waitingTime="44.00" waitingCount="2" stopTime="0.00" timeLoss="59.98" rerouteNo="0" devices="tripinfo_f_se.1" vType="car" speedFactor="1.13" vaporized=""/>
    <tripinfo id="f_sn.6" depart="35.00" departLane="s2c_0" departPos="5.10" departSpeed="0.00" departDelay="4.14" arrival="121.00" arrivalLane="c2n_1" arrivalPos="189.60" arrivalSpeed="13.07" duration="86.00" routeLength="394.90" waitingTime="40.00" waitingCount="2" stopTime="0.00" timeLoss="57.44" rerouteNo="0" devices="tripinfo_f_sn.6" vType="car" speedFactor="1.15" vaporized=""/>
    <tripinfo id="f_sn.7" depart="39.00" departLane="s2c_0" departPos="5.10" departSpeed="0.00" departDelay="3.00" arrival="123.00" arrivalLane="c2n_1" arrivalPos="189.60" arrivalSpeed="13.65" duration="84.00" routeLength="394.90" waitingTime="37.00" waitingCount="2" stopTime="0.00" timeLoss="55.19" rerouteNo="0" devices="tripinfo_f_sn.7" vType="car" speedFactor="1.02" vaporized=""/>
    <tripinfo id="f_sn.8" depart="42.00" departLane="s2c_0" departPos="5.10" departSpeed="0.00" departDelay="0.86" arrival="125.00" arrivalLane="c2n_1" arrivalPos="189.60" arrivalSpeed="12.72" duration="83.00" routeLength="394.90" waitingTime="34.00" waitingCount="2" stopTime="0.00" timeLoss="54.01" rerouteNo="0" devices="tripinfo_f_sn.8" vType="car" speedFactor="1.18" vaporized=""/>
    <tripinfo id="f_sn.9" depart="47.00" departLane="s2c_0" departPos="5.10" departSpeed="0.00" departDelay="0.71" arrival="128.00" arrivalLane="c2n_1" arrivalPos="189.60" arrivalSpeed="12.01" duration="81.00" routeLength="394.90" waitingTime="30.00" waitingCount="2" stopTime="0.00" timeLoss="50.49" rerouteNo="0" devices="tripinfo_f_sn.9" vType="car" speedFactor="0.96" vaporized=""/>
    <tripinfo id="f_sw.3" depart="92.00" departLane="s2c_0" departPos="5.10" departSpeed="0.00" departDelay="2.00" arrival="128.00" arrivalLane="c2w_0" arrivalPos="189.60" arrivalSpeed="12.40" duration="36.00" routeLength="397.32" waitingTime="0.00" waitingCount="0" stopTime="0.00" timeLoss="5.45" rerouteNo="0" devices="tripinfo_f_sw.3" vType="car" speedFactor="0.98" vaporized=""/>
    <tripinfo id="f_sn.10" depart="52.00" departLane="s2c_0" departPos="5.10" departSpeed="0.00" departDelay="0.57" arrival="129.00" arrivalLane="c2n_1" arrivalPos="189.60" arrivalSpeed="13.04" duration="77.00" routeLength="394.90" waitingTime="27.00" waitingCount="2" stopTime="0.00" timeLoss="48.36" rerouteNo="0" devices="tripinfo_f_sn.10" vType="car" speedFactor="1.04" vaporized=""/>
    <tripinfo id="f_sn.11" depart="57.00" departLane="s2c_0" departPos="5.10" departSpeed="0.00" departDelay="0.43" arrival="133.00" arrivalLane="c2n_1" arrivalPos="189.60" arrivalSpeed="11.98" duration="76.00" routeLength="394.90" waitingTime="23.00" waitingCount="2" stopTime="0.00" timeLoss="44.00" rerouteNo="0" devices="tripinfo_f_sn.11" vType="car" speedFactor="0.90" vaporized=""/>
    <tripinfo id="f_se.2" depart="60.00" departLane="s2c_0" departPos="5.10" departSpeed="0.00" departDelay="0.00" arrival="138.00" arrivalLane="c2e_0" arrivalPos="189.60" arrivalSpeed="11.47" duration="78.00" routeLength="385.83" waitingTime="22.00" waitingCount="2" stopTime="0.00" timeLoss="43.81" rerouteNo="0" devices="tripinfo_f_se.2" vType="car" speedFactor="0.85" vaporized=""/>
    <tripinfo id="f_sn.12" depart="66.00" departLane="s2c_0" departPos="5.10" departSpeed="0.00" departDelay="4.28" arrival="138.00" arrivalLane="c2n_1" arrivalPos="189.60" arrivalSpeed="13.36" duration="72.00" routeLength="394.90" waitingTime="18.00" waitingCount="1" stopTime="0.00" timeLoss="42.69" rerouteNo="0" devices="tripinfo_f_sn.12" vType="car" speedFactor="1.14" vaporized=""/>
    <tripinfo id="f_sn.13" depart="68.00" departLane="s2c_0" departPos="5.10" departSpeed="0.00" departDelay="1.14" arrival="139.00" arrivalLane="c2n_1" arrivalPos="189.60" arrivalSpeed="12.43" duration="71.00" routeLength="394.90" waitingTime="16.00" waitingCount="1" stopTime="0.00" timeLoss="42.49" rerouteNo="0" devices="tripinfo_f_sn.13" vType="car" speedFactor="1.12" vaporized=""/>
    <tripinfo id="f_sn.14" depart="73.00" departLane="s2c_0" departPos="5.10" departSpeed="0.00" departDelay="1.00" arrival="141.00" arrivalLane="c2n_1" arrivalPos="189.60" arrivalSpeed="13.02" duration="68.00" routeLength="394.90" waitingTime="17.00" waitingCount="1" stopTime="0.00" timeLoss="38.94" rerouteNo="0" devices="tripinfo_f_sn.14" vType="car" speedFactor="0.99" vaporized=""/>
    <tripinfo id="f_sn.15" depart="78.00" departLane="s2c_0" departPos="5.10" departSpeed="0.00" departDelay="0.86" arrival="144.00" arrivalLane="c2n_1" arrivalPos="189.60" arrivalSpeed="12.00" duration="66.00" routeLength="394.90" waitingTime="15.00" waitingCount="1" stopTime="0.00" timeLoss="34.26" rerouteNo="0" devices="tripinfo_f_sn.15" vType="car" speedFactor="0.91" vaporized=""/>
    <tripinfo id="f_sn.16" depart="83.00" departLane="s2c_0" departPos="5.10" departSpeed="0.00" departDelay="0.71" arrival="146.00" arrivalLane="c2n_1" arrivalPos="189.60" arrivalSpeed="12.94" duration="63.00" routeLength="394.90" waitingTime="15.00" waitingCount="1" stopTime="0.00" timeLoss="33.65" rerouteNo="0" devices="tripinfo_f_sn.16" vType="car" speedFactor="1.02" vaporized=""/>
    <tripinfo id="f_sn.17" depart="88.00" departLane="s2c_0" departPos="5.10" departSpeed="0.00" departDelay="0.57" arrival="147.00" arrivalLane="c2n_1" arrivalPos="189.60" arrivalSpeed="12.78" duration="59.00" routeLength="394.90" waitingTime="15.00" waitingCount="1" stopTime="0.00" timeLoss="30.30" rerouteNo="0" devices="tripinfo_f_sn.17" vType="car" speedFactor="1.06" vaporized=""/>
    <tripinfo id="f_se.3" depart="90.00" departLane="s2c_0" departPos="5.10" departSpeed="0.00" departDelay="0.00" arrival="149.00" arrivalLane="c2e_0" arrivalPos="189.60" arrivalSpeed="12.86" duration="59.00" routeLength="385.83" waitingTime="14.00" waitingCount="1" stopTime="0.00" timeLoss="30.68" rerouteNo="0" devices="tripinfo_f_se.3" vType="car" speedFactor="1.03" vaporized=""/>
    <tripinfo id="f_sn.18" depart="95.00" departLane="s2c_0" departPos="5.10" departSpeed="0.00" departDelay="2.43" arrival="151.00" arrivalLane="c2n_1" arrivalPos="189.60" arrivalSpeed="13.31" duration="56.00" routeLength="394.90" waitingTime="12.00" waitingCount="1" stopTime="0.00" timeLoss="27.15" rerouteNo="0" devices="tripinfo_f_sn.18" vType="car" speedFactor="1.09" vaporized=""/>
    <tripinfo id="f_sn.19" depart="98.00" departLane="s2c_0" departPos="5.10" departSpeed="0.00" departDelay="0.28" arrival="153.00" arrivalLane="c2n_1" arrivalPos="189.60" arrivalSpeed="12.50" duration="55.00" routeLength="394.90" waitingTime="9.00" waitingCount="1" stopTime="0.00" timeLoss="25.31" rerouteNo="0" devices="tripinfo_f_sn.19" vType="car" speedFactor="0.97" vaporized=""/>
    <tripinfo id="f_sn.20" depart="103.00" departLane="s2c_0" departPos="5.10" departSpeed="0.00" departDelay="0.14" arrival="155.00" arrivalLane="c2n_1" arrivalPos="189.60" arrivalSpeed="12.33" duration="52.00" routeLength="394.90" waitingTime="6.00" waitingCount="1" stopTime="0.00" timeLoss="22.40" rerouteNo="0" devices="tripinfo_f_sn.20" vType="car" speedFactor="0.98" vaporized=""/>
    <tripinfo id="f_sn.21" depart="109.00" departLane="s2c_0" departPos="5.10" departSpeed="0.00" departDelay="1.00" arrival="157.00" arrivalLane="c2n_1" arrivalPos="189.60" arrivalSpeed="12.70" duration="48.00" routeLength="394.90" waitingTime="2.00" waitingCount="1" stopTime="0.00" timeLoss="18.85" rerouteNo="0" devices="tripinfo_f_sn.21" vType="car" speedFactor="1.02" vaporized=""/>
    <tripinfo id="f_sn.22" depart="114.00" departLane="s2c_0" departPos="5.10" departSpeed="0.00" departDelay="0.85" arrival="160.00" arrivalLane="c2n_1" arrivalPos="189.60" arrivalSpeed="11.93" duration="46.00" routeLength="394.90" waitingTime="0.00" waitingCount="0" stopTime="0.00" timeLoss="13.71" rerouteNo="0" devices="tripinfo_f_sn.22" vType="car" speedFactor="0.89" vaporized=""/>
    <tripinfo id="f_sw.4" depart="124.00" departLane="s2c_0" departPos="5.10" departSpeed="0.00" departDelay="4.00" arrival="163.00" arrivalLane="c2w_0" arrivalPos="189.60" arrivalSpeed="12.63" duration="39.00" routeLength="397.32" waitingTime="0.00" waitingCount="0" stopTime="0.00" timeLoss="9.53" rerouteNo="0" devices="tripinfo_f_sw.4" vType="car" speedFactor="1.10" vaporized=""/>
    <tripinfo id="f_ne.2" depart="60.00" departLane="n2c_0" departPos="5.10" departSpeed="0.00" departDelay="0.00" arrival="166.00" arrivalLane="c2e_0" arrivalPos="189.60" arrivalSpeed="11.60" duration="106.00" routeLength="397.32" waitingTime="61.00" waitingCount="2" stopTime="0.00" timeLoss="72.36" rerouteNo="0" devices="tripinfo_f_ne.2" vType="car" speedFactor="0.88" vaporized=""/>
    <tripinfo id="f_ew.1" depart="11.00" departLane="e2c_0" departPos="5.10" departSpeed="0.00" departDelay="0.71" arrival="168.00" arrivalLane="c2w_1" arrivalPos="189.60" arrivalSpeed="10.94" duration="157.00" routeLength="394.90" waitingTime="110.00" waitingCount="2" stopTime="0.00" timeLoss="124.00" rerouteNo="0" devices="tripinfo_f_ew.1" vType="car" speedFactor="0.88" vaporized=""/>
    <tripinfo id="f_we.1" depart="11.00" departLane="w2c_0" departPos="5.10" departSpeed="0.00" departDelay="0.71" arrival="168.00" arrivalLane="c2e_1" arrivalPos="189.60" arrivalSpeed="10.44" duration="157.00" routeLength="394.90" waitingTime="109.00" waitingCount="2" stopTime="0.00" timeLoss="126.72" rerouteNo="0" devices="tripinfo_f_we.1" vType="car" speedFactor="0.94" vaporized=""/>
    <tripinfo id="f_ew.2" depart="21.00" departLane="e2c_0" departPos="5.10" departSpeed="0.00" departDelay="0.43" arrival="170.00" arrivalLane="c2w_1" arrivalPos="189.60" arrivalSpeed="12.66" duration="149.00" routeLength="394.90" waitingTime="103.00" waitingCount="2" stopTime="0.00" timeLoss="118.92" rerouteNo="0" devices="tripinfo_f_ew.2" vType="car" speedFactor="0.97" vaporized=""/>
    <tripinfo id="f_we.2" depart="21.00" departLane="w2c_0" departPos="5.10" departSpeed="0.00" departDelay="0.43" arrival="171.00" arrivalLane="c2e_1" arrivalPos="189.60" arrivalSpeed="11.63" duration="150.00" routeLength="394.90" waitingTime="99.00" waitingCount="2" stopTime="0.00" timeLoss="117.54" rerouteNo="0" devices="tripinfo_f_we.2" vType="car" speedFactor="0.89" vaporized=""/>
    <tripinfo id="f_ew.3" depart="31.00" departLane="e2c_0" departPos="5.10" departSpeed="0.00" departDelay="0.14" arrival="171.00" arrivalLane="c2w_1" arrivalPos="189.60" arrivalSpeed="12.78" duration="140.00" routeLength="394.90" waitingTime="95.00" waitingCount="2" stopTime="0.00" timeLoss="111.34" rerouteNo="0" devices="tripinfo_f_ew.3" vType="car" speedFactor="1.01" vaporized=""/>
    <tripinfo id="f_we.3" depart="31.00" departLane="w2c_0" departPos="5.10" departSpeed="0.00" departDelay="0.14" arrival="173.00" arrivalLane="c2e_1" arrivalPos="189.60" arrivalSpeed="13.53" duration="142.00" routeLength="394.90" waitingTime="92.00" waitingCount="2" stopTime="0.00" timeLoss="112.77" rerouteNo="0" devices="tripinfo_f_we.3" vType="car" speedFactor="1.17" vaporized=""/>
    <tripinfo id="f_ew.4" depart="42.00" departLane="e2c_0" departPos="5.10" departSpeed="0.00" departDelay="0.86" arrival="173.00" arrivalLane="c2w_1" arrivalPos="189.60" arrivalSpeed="13.66" duration="131.00" routeLength="394.90" waitingTime="81.00" waitingCount="2" stopTime="0.00" timeLoss="102.02" rerouteNo="0" devices="tripinfo_f_ew.4" vType="car" speedFactor="1.10" vaporized=""/>
    <tripinfo id="f_we.4" depart="42.00" departLane="w2c_0" departPos="5.10" departSpeed="0.00" departDelay="0.86" arrival="175.00" arrivalLane="c2e_1" arrivalPos="189.60" arrivalSpeed="11.55" duration="133.00" routeLength="394.90" waitingTime="82.00" waitingCount="2" stopTime="0.00" timeLoss="100.75" rerouteNo="0" devices="tripinfo_f_we.4" vType="car" speedFactor="0.90" vaporized=""/>
    <tripinfo id="f_wn.2" depart="120.00" departLane="w2c_0" departPos="5.10" departSpeed="0.00" departDelay="0.00" arrival="175.00" arrivalLane="c2n_0" arrivalPos="189.60" arrivalSpeed="13.23" duration="55.00" routeLength="397.32" waitingTime="13.00" waitingCount="2" stopTime="0.00" timeLoss="24.17" rerouteNo="0" devices="tripinfo_f_wn.2" vType="car" speedFactor="0.97" vaporized=""/>
    <tripinfo id="f_es.2" depart="123.00" departLane="e2c_0" departPos="5.10" departSpeed="0.00" departDelay="3.00" arrival="177.00" arrivalLane="c2s_0" arrivalPos="189.60" arrivalSpeed="13.08" duration="54.00" routeLength="397.32" waitingTime="12.00" waitingCount="2" stopTime="0.00" timeLoss="23.21" rerouteNo="0" devices="tripinfo_f_es.2" vType="car" speedFactor="0.96" vaporized=""/>
    <tripinfo id="f_sn.23" depart="119.00" departLane="s2c_0" departPos="5.10" departSpeed="0.00" departDelay="0.71" arrival="178.00" arrivalLane="c2n_1" arrivalPos="189.60" arrivalSpeed="13.59" duration="59.00" routeLength="394.90" waitingTime="13.00" waitingCount="1" stopTime="0.00" timeLoss="30.48" rerouteNo="0" devices="tripinfo_f_sn.23" vType="car" speedFactor="1.06" vaporized=""/>
    <tripinfo id="f_se.4" depart="120.00" departLane="s2c_0" departPos="5.10" departSpeed="0.00" departDelay="0.00" arrival="180.00" arrivalLane="c2e_0" arrivalPos="189.60" arrivalSpeed="13.78" duration="60.00" routeLength="385.83" waitingTime="13.00" waitingCount="1" stopTime="0.00" timeLoss="31.11" rerouteNo="0" devices="tripinfo_f_se.4" vType="car" speedFactor="1.12" vaporized=""/>
    <tripinfo id="f_sn.24" depart="127.00" departLane="s2c_0" departPos="5.10" departSpeed="0.00" departDelay="3.57" arrival="182.00" arrivalLane="c2n_1" arrivalPos="189.60" arrivalSpeed="13.28" duration="55.00" routeLength="394.90" waitingTime="11.00" waitingCount="1" stopTime="0.00" timeLoss="26.15" rerouteNo="0" devices="tripinfo_f_sn.24" vType="car" speedFactor="1.07" vaporized=""/>
    <tripinfo id="f_sn.25" depart="129.00" departLane="s2c_0" departPos="5.10" departSpeed="0.00" departDelay="0.43" arrival="185.00" arrivalLane="c2n_1" arrivalPos="189.60" arrivalSpeed="12.50" duration="56.00" routeLength="394.90" waitingTime="11.00" waitingCount="1" stopTime="0.00" timeLoss="25.85" rerouteNo="0" devices="tripinfo_f_sn.25" vType="car" speedFactor="0.96" vaporized=""/>
    <tripinfo id="f_sn.26" depart="134.00" departLane="s2c_0" departPos="5.10" departSpeed="0.00" departDelay="0.28" arrival="189.00" arrivalLane="c2n_1" arrivalPos="189.60" arrivalSpeed="11.62" duration="55.00" routeLength="394.90" waitingTime="10.00" waitingCount="1" stopTime="0.00" timeLoss="21.33" rerouteNo="0" devices="tripinfo_f_sn.26" vType="car" speedFactor="0.87" vaporized=""/>
    <tripinfo id="f_sn.27" depart="139.00" departLane="s2c_0" departPos="5.10" departSpeed="0.00" departDelay="0.14" arrival="190.00" arrivalLane="c2n_1" arrivalPos="189.60" arrivalSpeed="12.00" duration="51.00" routeLength="394.90" waitingTime="7.00" waitingCount="1" stopTime="0.00" timeLoss="20.06" rerouteNo="0" devices="tripinfo_f_sn.27" vType="car" speedFactor="0.92" vaporized=""/>
    <tripinfo id="f_sn.28" depart="145.00" departLane="s2c_0" departPos="5.10" departSpeed="0.00" departDelay="1.00" arrival="192.00" arrivalLane="c2n_1" arrivalPos="189.60" arrivalSpeed="13.65" duration="47.00" routeLength="394.90" waitingTime="4.00" waitingCount="1" stopTime="0.00" timeLoss="18.09" rerouteNo="0" devices="tripinfo_f_sn.28" vType="car" speedFactor="1.00" vaporized=""/>
    <tripinfo id="f_sn.29" depart="150.00" departLane="s2c_0" departPos="5.10" departSpeed="0.00" departDelay="0.85" arrival="194.00" arrivalLane="c2n_1" arrivalPos="189.60" arrivalSpeed="12.94" duration="44.00" routeLength="394.90" waitingTime="1.00" waitingCount="1" stopTime="0.00" timeLoss="14.94" rerouteNo="0" devices="tripinfo_f_sn.29" vType="car" speedFactor="1.10" vaporized=""/>
    <tripinfo id="f_sw.5" depart="155.00" departLane="s2c_0" departPos="5.10" departSpeed="0.00" departDelay="5.00" arrival="196.00" arrivalLane="c2w_0" arrivalPos="189.60" arrivalSpeed="13.85" duration="41.00" routeLength="397.32" waitingTime="1.00" waitingCount="1" stopTime="0.00" timeLoss="11.94" rerouteNo="0" devices="tripinfo_f_sw.5" vType="car" speedFactor="1.15" vaporized=""/>
    <tripinfo id="f_se.5" depart="152.00" departLane="s2c_0" departPos="5.10" departSpeed="0.00" departDelay="2.00" arrival="199.00" arrivalLane="c2e_0" arrivalPos="189.60" arrivalSpeed="13.63" duration="47.00" routeLength="385.83" waitingTime="2.00" waitingCount="2" stopTime="0.00" timeLoss="17.83" rerouteNo="0" devices="tripinfo_f_se.5" vType="car" speedFactor="1.06" vaporized=""/>
    <tripinfo id="f_sn.30" depart="158.00" departLane="s2c_0" departPos="5.10" departSpeed="0.00" departDelay="3.71" arrival="205.00" arrivalLane="c2n_1" arrivalPos="189.60" arrivalSpeed="10.73" duration="47.00" routeLength="394.90" waitingTime="0.00" waitingCount="0" stopTime="0.00" timeLoss="11.60" rerouteNo="0" devices="tripinfo_f_sn.30" vType="car" speedFactor="0.82" vaporized=""/>
    <tripinfo id="f_sn.31" depart="161.00" departLane="s2c_0" departPos="5.10" departSpeed="0.00" departDelay="1.57" arrival="206.00" arrivalLane="c2n_1" arrivalPos="189.60" arrivalSpeed="12.24" duration="45.00" routeLength="394.90" waitingTime="0.00" waitingCount="0" stopTime="0.00" timeLoss="16.43" rerouteNo="0" devices="tripinfo_f_sn.31" vType="car" speedFactor="1.07" vaporized=""/>
    <tripinfo id="f_sn.32" depart="165.00" departLane="s2c_0" departPos="5.10" departSpeed="0.00" departDelay="0.42" arrival="208.00" arrivalLane="c2n_1" arrivalPos="189.60" arrivalSpeed="13.49" duration="43.00" routeLength="394.90" waitingTime="0.00" waitingCount="0" stopTime="0.00" timeLoss="14.02" rerouteNo="0" devices="tripinfo_f_sn.32" vType="car" speedFactor="1.04" vaporized=""/>
    <tripinfo id="f_sn.33" depart="170.00" departLane="s2c_0" departPos="5.10" departSpeed="0.00" departDelay="0.28" arrival="210.00" arrivalLane="c2n_1" arrivalPos="189.60" arrivalSpeed="13.32" duration="40.00" routeLength="394.90" waitingTime="0.00" waitingCount="0" stopTime="0.00" timeLoss="10.76" rerouteNo="0" devices="tripinfo_f_sn.33" vType="car" speedFactor="1.02" vaporized=""/>