<?xml version="1.0" encoding="UTF-8"?>

<!-- generated on 2026-05-20T10:11:24.925255+05:30 by Eclipse SUMO sumo 1.26.0
<sumoConfiguration xmlns:xsi="http://www.w3.org/2001/XMLSchema-instance" xsi:noNamespaceSchemaLocation="http://sumo.dlr.de/xsd/sumoConfiguration.xsd">

    <input>
        <net-file value="/Users/nitishpatil/Projects/trafficsense/src/signals/network_real/intersection.net.xml"/>
        <route-files value="/Users/nitishpatil/Projects/trafficsense/src/signals/network_real/routes.rou.xml"/>
    </input>

    <output>
        <tripinfo-output value="/Users/nitishpatil/Projects/trafficsense/src/signals/fixed_tripinfo_real.xml"/>
    </output>

    <time>
        <begin value="0"/>
        <end value="600"/>
    </time>

    <report>
        <verbose value="false"/>
        <no-warnings value="true"/>
        <no-step-log value="true"/>
    </report>

    <traci_server>
        <remote-port value="55670"/>
    </traci_server>

</sumoConfiguration>
-->

<tripinfos xmlns:xsi="http://www.w3.org/2001/XMLSchema-instance" xsi:noNamespaceSchemaLocation="http://sumo.dlr.de/xsd/tripinfo_file.xsd">
    <tripinfo id="1" depart="1.00" departLane="-42375995#0_0" departPos="5.10" departSpeed="0.00" departDelay="0.50" arrival="19.00" arrivalLane="-42375997#1_0" arrivalPos="45.60" arrivalSpeed="12.84" duration="18.00" routeLength="148.75" waitingTime="0.00" waitingCount="0" stopTime="0.00" timeLoss="5.17" rerouteNo="0" devices="tripinfo_1" vType="DEFAULT_VEHTYPE" speedFactor="0.94" vaporized=""/>
    <tripinfo id="24" depart="12.00" departLane="42375977#0_0" departPos="5.10" departSpeed="0.00" departDelay="0.00" arrival="24.00" arrivalLane="42375977#0_0" arrivalPos="99.35" arrivalSpeed="11.39" duration="12.00" routeLength="94.25" waitingTime="0.00" waitingCount="0" stopTime="0.00" timeLoss="2.85" rerouteNo="0" devices="tripinfo_24" vType="DEFAULT_VEHTYPE" speedFactor="0.83" vaporized=""/>
    <tripinfo id="6" depart="3.00" departLane="42376017#0_0" departPos="5.10" departSpeed="0.00" departDelay="0.00" arrival="25.00" arrivalLane="-1094429400_0" arrivalPos="24.93" arrivalSpeed="12.63" duration="22.00" routeLength="175.39" waitingTime="0.00" waitingCount="0" stopTime="0.00" timeLoss="8.10" rerouteNo="0" devices="tripinfo_6" vType="DEFAULT_VEHTYPE" speedFactor="1.05" vaporized=""/>
    <tripinfo id="44" depart="22.00" departLane="-1094429401_0" departPos="5.10" departSpeed="0.00" departDelay="0.00" arrival="31.00" arrivalLane="42375995#3_0" arrivalPos="38.74" arrivalSpeed="13.05" duration="9.00" routeLength="62.51" waitingTime="0.00" waitingCount="0" stopTime="0.00" timeLoss="3.71" rerouteNo="0" devices="tripinfo_44" vType="DEFAULT_VEHTYPE" speedFactor="1.04" vaporized=""/>
    <tripinfo id="2" depart="1.00" departLane="42375996#0_0" departPos="5.10" departSpeed="0.00" departDelay="0.00" arrival="32.00" arrivalLane="42375991#10_0" arrivalPos="10.99" arrivalSpeed="12.97" duration="31.00" routeLength="327.18" waitingTime="0.00" waitingCount="0" stopTime="0.00" timeLoss="6.45" rerouteNo="0" devices="tripinfo_2" vType="DEFAULT_VEHTYPE" speedFactor="1.01" vaporized=""/>
    <tripinfo id="12" depart="7.00" departLane="42376012#1_0" departPos="5.10" departSpeed="0.00" departDelay="1.00" arrival="37.00" arrivalLane="42375995#3_0" arrivalPos="38.74" arrivalSpeed="13.78" duration="30.00" routeLength="332.76" waitingTime="0.00" waitingCount="0" stopTime="0.00" timeLoss="5.85" rerouteNo="0" devices="tripinfo_12" vType="DEFAULT_VEHTYPE" speedFactor="1.05" vaporized=""/>
    <tripinfo id="5" depart="5.00" departLane="-42375990#0_0" departPos="5.10" departSpeed="0.00" departDelay="2.50" arrival="41.00" arrivalLane="42375975#7_0" arrivalPos="5.52" arrivalSpeed="11.03" duration="36.00" routeLength="298.99" waitingTime="0.00" waitingCount="0" stopTime="0.00" timeLoss="7.65" rerouteNo="0" devices="tripinfo_5" vType="DEFAULT_VEHTYPE" speedFactor="0.83" vaporized=""/>
    <tripinfo id="13" depart="7.00" departLane="1094429400_0" departPos="5.10" departSpeed="0.00" departDelay="0.50" arrival="44.00" arrivalLane="994960235#0_0" arrivalPos="49.48" arrivalSpeed="15.30" duration="37.00" routeLength="339.59" waitingTime="3.00" waitingCount="1" stopTime="0.00" timeLoss="13.51" rerouteNo="0" devices="tripinfo_13" vType="DEFAULT_VEHTYPE" speedFactor="1.12" vaporized=""/>
    <tripinfo id="26" depart="13.00" departLane="-42375975#2_0" departPos="0.20" departSpeed="0.00" departDelay="0.00" arrival="44.00" arrivalLane="-994960233#1_0" arrivalPos="46.13" arrivalSpeed="12.71" duration="31.00" routeLength="282.32" waitingTime="0.00" waitingCount="0" stopTime="0.00" timeLoss="6.10" rerouteNo="0" devices="tripinfo_26" vType="DEFAULT_VEHTYPE" speedFactor="0.92" vaporized=""/>
    <tripinfo id="59" depart="30.00" departLane="1094429400_0" departPos="5.10" departSpeed="0.00" departDelay="0.50" arrival="44.00" arrivalLane="42375995#3_0" arrivalPos="38.74" arrivalSpeed="12.18" duration="14.00" routeLength="103.22" waitingTime="0.00" waitingCount="0" stopTime="0.00" timeLoss="5.43" rerouteNo="0" devices="tripinfo_59" vType="DEFAULT_VEHTYPE" speedFactor="0.97" vaporized=""/>
    <tripinfo id="0" depart="0.00" departLane="42375976#2_0" departPos="5.10" departSpeed="0.00" departDelay="0.00" arrival="48.00" arrivalLane="-1094429403#1_0" arrivalPos="23.08" arrivalSpeed="5.19" duration="48.00" routeLength="367.24" waitingTime="2.00" waitingCount="1" stopTime="0.00" timeLoss="20.00" rerouteNo="0" devices="tripinfo_0" vType="DEFAULT_VEHTYPE" speedFactor="1.06" vaporized=""/>
    <tripinfo id="8" depart="4.00" departLane="-42375998#1_0" departPos="5.10" departSpeed="0.00" departDelay="0.00" arrival="50.00" arrivalLane="-42375991#0_0" arrivalPos="163.86" arrivalSpeed="12.48" duration="46.00" routeLength="454.07" waitingTime="0.00" waitingCount="0" stopTime="0.00" timeLoss="10.14" rerouteNo="0" devices="tripinfo_8" vType="DEFAULT_VEHTYPE" speedFactor="0.94" vaporized=""/>
    <tripinfo id="43" depart="22.00" departLane="994960235#0_0" departPos="5.10" departSpeed="0.00" departDelay="0.50" arrival="55.00" arrivalLane="42376371#0_0" arrivalPos="15.74" arrivalSpeed="10.94" duration="33.00" routeLength="205.12" waitingTime="2.00" waitingCount="1" stopTime="0.00" timeLoss="16.08" rerouteNo="0" devices="tripinfo_43" vType="DEFAULT_VEHTYPE" speedFactor="1.04" vaporized=""/>
    <tripinfo id="30" depart="15.00" departLane="-42375997#0_0" departPos="5.10" departSpeed="0.00" departDelay="0.00" arrival="58.00" arrivalLane="-42376011_0" arrivalPos="105.00" arrivalSpeed="4.95" duration="43.00" routeLength="234.69" waitingTime="5.00" waitingCount="3" stopTime="0.00" timeLoss="27.34" rerouteNo="0" devices="tripinfo_30" vType="DEFAULT_VEHTYPE" speedFactor="1.18" vaporized=""/>
    <tripinfo id="73" depart="38.00" departLane="42375995#1_0" departPos="5.10" departSpeed="0.00" departDelay="1.50" arrival="59.00" arrivalLane="42375991#1_0" arrivalPos="19.69" arrivalSpeed="10.29" duration="21.00" routeLength="155.62" waitingTime="0.00" waitingCount="0" stopTime="0.00" timeLoss="8.59" rerouteNo="0" devices="tripinfo_73" vType="DEFAULT_VEHTYPE" speedFactor="1.06" vaporized=""/>
    <tripinfo id="49" depart="25.00" departLane="42375975#11_0" departPos="5.10" departSpeed="0.00" departDelay="0.50" arrival="61.00" arrivalLane="-42375991#0_0" arrivalPos="163.86" arrivalSpeed="11.45" duration="36.00" routeLength="338.47" waitingTime="0.00" waitingCount="0" stopTime="0.00" timeLoss="5.84" rerouteNo="0" devices="tripinfo_49" vType="DEFAULT_VEHTYPE" speedFactor="0.85" vaporized=""/>
    <tripinfo id="77" depart="39.00" departLane="-42375976#2_0" departPos="5.10" departSpeed="0.00" departDelay="0.50" arrival="62.00" arrivalLane="1094431093_0" arrivalPos="25.20" arrivalSpeed="13.35" duration="23.00" routeLength="201.32" waitingTime="0.00" waitingCount="0" stopTime="0.00" timeLoss="6.10" rerouteNo="0" devices="tripinfo_77" vType="DEFAULT_VEHTYPE" speedFactor="0.98" vaporized=""/>
    <tripinfo id="18" depart="9.00" departLane="-42375990#1_0" departPos="5.10" departSpeed="0.00" departDelay="0.00" arrival="64.00" arrivalLane="-42376022#1_0" arrivalPos="65.65" arrivalSpeed="12.86" duration="55.00" routeLength="511.97" waitingTime="0.00" waitingCount="0" stopTime="0.00" timeLoss="12.15" rerouteNo="0" devices="tripinfo_18" vType="DEFAULT_VEHTYPE" speedFactor="0.94" vaporized=""/>
    <tripinfo id="3" depart="2.00" departLane="-42375990#0_0" departPos="5.10" departSpeed="0.00" departDelay="0.50" arrival="65.00" arrivalLane="1227721419_0" arrivalPos="266.79" arrivalSpeed="24.05" duration="63.00" routeLength="765.54" waitingTime="0.00" waitingCount="0" stopTime="0.00" timeLoss="17.32" rerouteNo="0" devices="tripinfo_3" vType="DEFAULT_VEHTYPE" speedFactor="1.08" vaporized=""/>
    <tripinfo id="95" depart="54.00" departLane="-42375975#11_0" departPos="5.10" departSpeed="0.00" departDelay="6.50" arrival="65.00" arrivalLane="994960234_0" arrivalPos="51.27" arrivalSpeed="13.49" duration="11.00" routeLength="84.19" waitingTime="0.00" waitingCount="0" stopTime="0.00" timeLoss="4.65" rerouteNo="0" devices="tripinfo_95" vType="DEFAULT_VEHTYPE" speedFactor="1.06" vaporized=""/>
    <tripinfo id="17" depart="9.00" departLane="42375991#3_0" departPos="2.44" departSpeed="0.00" departDelay="0.50" arrival="67.00" arrivalLane="-42371512#2_0" arrivalPos="303.44" arrivalSpeed="20.06" duration="58.00" routeLength="699.70" waitingTime="0.00" waitingCount="0" stopTime="0.00" timeLoss="11.60" rerouteNo="0" devices="tripinfo_17" vType="DEFAULT_VEHTYPE" speedFactor="0.94" vaporized=""/>
    <tripinfo id="15" depart="8.00" departLane="42376372#0_0" departPos="5.10" departSpeed="0.00" departDelay="0.50" arrival="68.00" arrivalLane="42375977#1_0" arrivalPos="112.91" arrivalSpeed="11.68" duration="60.00" routeLength="584.82" waitingTime="0.00" waitingCount="0" stopTime="0.00" timeLoss="12.73" rerouteNo="0" devices="tripinfo_15" vType="DEFAULT_VEHTYPE" speedFactor="0.93" vaporized=""/>
    <tripinfo id="56" depart="28.00" departLane="-1184622784#1_0" departPos="5.10" departSpeed="0.00" departDelay="0.00" arrival="69.00" arrivalLane="42375998#1_0" arrivalPos="17.46" arrivalSpeed="11.61" duration="41.00" routeLength="264.97" waitingTime="7.00" waitingCount="1" stopTime="0.00" timeLoss="17.39" rerouteNo="0" devices="tripinfo_56" vType="DEFAULT_VEHTYPE" speedFactor="0.90" vaporized=""/>
    <tripinfo id="28" depart="14.00" departLane="50280633#0_0" departPos="5.10" departSpeed="0.00" departDelay="0.00" arrival="71.00" arrivalLane="42375998#1_0" arrivalPos="17.46" arrivalSpeed="14.75" duration="57.00" routeLength="780.54" waitingTime="7.00" waitingCount="1" stopTime="0.00" timeLoss="26.01" rerouteNo="0" devices="tripinfo_28" vType="DEFAULT_VEHTYPE" speedFactor="1.13" vaporized=""/>
    <tripinfo id="32" depart="16.00" departLane="737470752#0_0" departPos="5.10" departSpeed="0.00" departDelay="0.00" arrival="72.00" arrivalLane="1094431093_0" arrivalPos="25.20" arrivalSpeed="13.30" duration="56.00" routeLength="447.04" waitingTime="6.00" waitingCount="2" stopTime="0.00" timeLoss="25.03" rerouteNo="0" devices="tripinfo_32" vType="DEFAULT_VEHTYPE" speedFactor="1.01" vaporized=""/>
    <tripinfo id="7" depart="4.00" departLane="42376012#1_0" departPos="5.10" departSpeed="0.00" departDelay="0.50" arrival="74.00" arrivalLane="42375991#6_0" arrivalPos="16.61" arrivalSpeed="11.17" duration="70.00" routeLength="183.89" waitingTime="43.00" waitingCount="1" stopTime="0.00" timeLoss="51.95" rerouteNo="0" devices="tripinfo_7" vType="DEFAULT_VEHTYPE" speedFactor="0.89" vaporized=""/>
    <tripinfo id="38" depart="19.00" departLane="-1207112697_0" departPos="5.10" departSpeed="0.00" departDelay="0.00" arrival="74.00" arrivalLane="-42371512#2_0" arrivalPos="303.44" arrivalSpeed="24.00" duration="55.00" routeLength="697.24" waitingTime="0.00" waitingCount="0" stopTime="0.00" timeLoss="15.06" rerouteNo="0" devices="tripinfo_38" vType="DEFAULT_VEHTYPE" speedFactor="1.10" vaporized=""/>
    <tripinfo id="91" depart="50.00" departLane="-42375975#10_0" departPos="2.58" departSpeed="0.00" departDelay="4.50" arrival="75.00" arrivalLane="-42376371#2_0" arrivalPos="19.79" arrivalSpeed="11.82" duration="25.00" routeLength="211.30" waitingTime="0.00" waitingCount="0" stopTime="0.00" timeLoss="6.29" rerouteNo="0" devices="tripinfo_91" vType="DEFAULT_VEHTYPE" speedFactor="0.89" vaporized=""/>
    <tripinfo id="40" depart="20.00" departLane="42376001#3_0" departPos="5.10" departSpeed="0.00" departDelay="0.00" arrival="76.00" arrivalLane="1094429401_0" arrivalPos="11.36" arrivalSpeed="10.24" duration="56.00" routeLength="578.96" waitingTime="0.00" waitingCount="0" stopTime="0.00" timeLoss="13.14" rerouteNo="0" devices="tripinfo_40" vType="DEFAULT_VEHTYPE" speedFactor="1.03" vaporized=""/>
    <tripinfo id="9" depart="5.00" departLane="994960233#0_0" departPos="4.67" departSpeed="0.00" departDelay="0.50" arrival="79.00" arrivalLane="-994960231_0" arrivalPos="87.02" arrivalSpeed="10.90" duration="74.00" routeLength="230.83" waitingTime="39.00" waitingCount="1" stopTime="0.00" timeLoss="52.50" rerouteNo="0" devices="tripinfo_9" vType="DEFAULT_VEHTYPE" speedFactor="0.86" vaporized=""/>
    <tripinfo id="86" depart="43.00" departLane="-42376017#1_0" departPos="5.10" departSpeed="0.00" departDelay="0.00" arrival="79.00" arrivalLane="994960252_0" arrivalPos="24.77" arrivalSpeed="13.26" duration="36.00" routeLength="380.70" waitingTime="0.00" waitingCount="0" stopTime="0.00" timeLoss="7.13" rerouteNo="0" devices="tripinfo_86" vType="DEFAULT_VEHTYPE" speedFactor="1.00" vaporized=""/>
    <tripinfo id="58" depart="29.00" departLane="-42375991#6_0" departPos="5.10" departSpeed="0.00" departDelay="0.00" arrival="81.00" arrivalLane="42376372#1_0" arrivalPos="16.99" arrivalSpeed="5.19" duration="52.00" routeLength="285.28" waitingTime="10.00" waitingCount="2" stopTime="0.00" timeLoss="30.40" rerouteNo="0" devices="tripinfo_58" vType="DEFAULT_VEHTYPE" speedFactor="1.02" vaporized=""/>
    <tripinfo id="29" depart="15.00" departLane="-42375990#1_0" departPos="5.10" departSpeed="0.00" departDelay="0.50" arrival="82.00" arrivalLane="-1184622784#1_0" arrivalPos="36.46" arrivalSpeed="11.76" duration="67.00" routeLength="550.24" waitingTime="0.00" waitingCount="0" stopTime="0.00" timeLoss="21.33" rerouteNo="0" devices="tripinfo_29" vType="DEFAULT_VEHTYPE" speedFactor="0.93" vaporized=""/>
    <tripinfo id="76" depart="42.00" departLane="50280633#2_0" departPos="5.10" departSpeed="0.00" departDelay="4.00" arrival="82.00" arrivalLane="-42375999_0" arrivalPos="118.31" arrivalSpeed="13.09" duration="40.00" routeLength="468.59" waitingTime="0.00" waitingCount="0" stopTime="0.00" timeLoss="13.23" rerouteNo="0" devices="tripinfo_76" vType="DEFAULT_VEHTYPE" speedFactor="1.03" vaporized=""/>
    <tripinfo id="48" depart="24.00" departLane="737470752#0_0" departPos="5.10" departSpeed="0.00" departDelay="0.00" arrival="83.00" arrivalLane="42376372#1_0" arrivalPos="16.99" arrivalSpeed="6.72" duration="59.00" routeLength="385.62" waitingTime="4.00" waitingCount="2" stopTime="0.00" timeLoss="27.98" rerouteNo="0" devices="tripinfo_48" vType="DEFAULT_VEHTYPE" speedFactor="0.88" vaporized=""/>
    <tripinfo id="33" depart="17.00" departLane="-42375991#6_0" departPos="5.10" departSpeed="0.00" departDelay="0.50" arrival="84.00" arrivalLane="-42375999_0" arrivalPos="118.31" arrivalSpeed="16.00" duration="67.00" routeLength="291.24" waitingTime="25.00" waitingCount="2" stopTime="0.00" timeLoss="46.82" rerouteNo="0" devices="tripinfo_33" vType="DEFAULT_VEHTYPE" speedFactor="1.17" vaporized=""/>
    <tripinfo id="70" depart="35.00" departLane="-994960231_0" departPos="5.10" departSpeed="0.00" departDelay="0.00" arrival="84.00" arrivalLane="42376001#0_0" arrivalPos="48.43" arrivalSpeed="14.11" duration="49.00" routeLength="435.82" waitingTime="0.00" waitingCount="0" stopTime="0.00" timeLoss="15.27" rerouteNo="0" devices="tripinfo_70" vType="DEFAULT_VEHTYPE" speedFactor="1.02" vaporized=""/>
    <tripinfo id="87" depart="46.00" departLane="-42375991#6_0" departPos="5.10" departSpeed="0.00" departDelay="2.50" arrival="86.00" arrivalLane="42376001#0_0" arrivalPos="48.43" arrivalSpeed="13.47" duration="40.00" routeLength="331.33" waitingTime="0.00" waitingCount="0" stopTime="0.00" timeLoss="14.38" rerouteNo="0" devices="tripinfo_87" vType="DEFAULT_VEHTYPE" speedFactor="1.04" vaporized=""/>
    <tripinfo id="106" depart="53.00" departLane="994960254_0" departPos="5.10" departSpeed="0.00" departDelay="0.00" arrival="86.00" arrivalLane="994960252_0" arrivalPos="24.77" arrivalSpeed="13.62" duration="33.00" routeLength="261.10" waitingTime="0.00" waitingCount="0" stopTime="0.00" timeLoss="11.05" rerouteNo="0" devices="tripinfo_106" vType="DEFAULT_VEHTYPE" speedFactor="1.01" vaporized=""/>
    <tripinfo id="19" depart="10.00" departLane="-1207112697_0" departPos="5.10" departSpeed="0.00" departDelay="0.50" arrival="88.00" arrivalLane="-42375998#0_0" arrivalPos="61.19" arrivalSpeed="11.40" duration="78.00" routeLength="627.94" waitingTime="2.00" waitingCount="1" stopTime="0.00" timeLoss="35.57" rerouteNo="0" devices="tripinfo_19" vType="DEFAULT_VEHTYPE" speedFactor="1.16" vaporized=""/>
    <tripinfo id="14" depart="7.00" departLane="-42376017#1_0" departPos="5.10" departSpeed="0.00" departDelay="0.00" arrival="89.00" arrivalLane="42371512#3_0" arrivalPos="199.60" arrivalSpeed="21.14" duration="82.00" routeLength="901.75" waitingTime="0.00" waitingCount="0" stopTime="0.00" timeLoss="18.94" rerouteNo="0" devices="tripinfo_14" vType="DEFAULT_VEHTYPE" speedFactor="0.99" vaporized=""/>
    <tripinfo id="52" depart="26.00" departLane="-1094429401_0" departPos="5.10" departSpeed="0.00" departDelay="0.00" arrival="90.00" arrivalLane="-737470752#0_0" arrivalPos="69.76" arrivalSpeed="26.68" duration="64.00" routeLength="579.62" waitingTime="6.00" waitingCount="1" stopTime="0.00" timeLoss="29.68" rerouteNo="0" devices="tripinfo_52" vType="DEFAULT_VEHTYPE" speedFactor="1.02" vaporized=""/>
    <tripinfo id="54" depart="27.00" departLane="-42375996#1_0" departPos="5.10" departSpeed="0.00" departDelay="0.00" arrival="90.00" arrivalLane="-42375968#0_0" arrivalPos="364.22" arrivalSpeed="22.07" duration="63.00" routeLength="735.15" waitingTime="0.00" waitingCount="0" stopTime="0.00" timeLoss="16.36" rerouteNo="0" devices="tripinfo_54" vType="DEFAULT_VEHTYPE" speedFactor="1.00" vaporized=""/>
    <tripinfo id="37" depart="19.00" departLane="994960254_0" departPos="5.10" departSpeed="0.00" departDelay="0.50" arrival="93.00" arrivalLane="1227721419_0" arrivalPos="266.79" arrivalSpeed="25.91" duration="74.00" routeLength="804.11" waitingTime="9.00" waitingCount="1" stopTime="0.00" timeLoss="34.12" rerouteNo="0" devices="tripinfo_37" vType="DEFAULT_VEHTYPE" speedFactor="1.18" vaporized=""/>
    <tripinfo id="57" depart="33.00" departLane="-994960233#1_0" departPos="5.10" departSpeed="0.00" departDelay="4.50" arrival="93.00" arrivalLane="42371512#3_0" arrivalPos="199.60" arrivalSpeed="24.29" duration="60.00" routeLength="539.44" waitingTime="1.00" waitingCount="1" stopTime="0.00" timeLoss="27.06" rerouteNo="0" devices="tripinfo_57" vType="DEFAULT_VEHTYPE" speedFactor="1.14" vaporized=""/>
    <tripinfo id="84" depart="42.00" departLane="-994960234_0" departPos="5.10" departSpeed="0.00" departDelay="0.00" arrival="93.00" arrivalLane="-42375996#2_0" arrivalPos="48.02" arrivalSpeed="9.62" duration="51.00" routeLength="117.11" waitingTime="32.00" waitingCount="1" stopTime="0.00" timeLoss="42.60" rerouteNo="0" devices="tripinfo_84" vType="DEFAULT_VEHTYPE" speedFactor="1.15" vaporized=""/>
    <tripinfo id="120" depart="60.00" departLane="-1094429401_0" departPos="5.10" departSpeed="0.00" departDelay="0.00" arrival="94.00" arrivalLane="42375998#1_0" arrivalPos="17.46" arrivalSpeed="12.69" duration="34.00" routeLength="303.48" waitingTime="0.00" waitingCount="0" stopTime="0.00" timeLoss="8.98" rerouteNo="0" devices="tripinfo_120" vType="DEFAULT_VEHTYPE" speedFactor="0.94" vaporized=""/>
    <tripinfo id="131" depart="66.00" departLane="42376000_0" departPos="5.10" departSpeed="0.00" departDelay="0.50" arrival="95.00" arrivalLane="50280633#3_0" arrivalPos="38.47" arrivalSpeed="14.83" duration="29.00" routeLength="214.42" waitingTime="0.00" waitingCount="0" stopTime="0.00" timeLoss="14.05" rerouteNo="0" devices="tripinfo_131" vType="DEFAULT_VEHTYPE" speedFactor="1.07" vaporized=""/>
    <tripinfo id="153" depart="83.00" departLane="-42375991#3_0" departPos="2.44" departSpeed="0.00" departDelay="6.50" arrival="97.00" arrivalLane="42375995#0_0" arrivalPos="23.86" arrivalSpeed="11.94" duration="14.00" routeLength="38.17" waitingTime="6.00" waitingCount="1" stopTime="0.00" timeLoss="9.99" rerouteNo="0" devices="tripinfo_153" vType="DEFAULT_VEHTYPE" speedFactor="0.93" vaporized=""/>
    <tripinfo id="155" depart="78.00" departLane="1094429400_0" departPos="5.10" departSpeed="0.00" departDelay="0.50" arrival="98.00" arrivalLane="42375995#3_0" arrivalPos="38.74" arrivalSpeed="14.28" duration="20.00" routeLength="103.22" waitingTime="3.00" waitingCount="1" stopTime="0.00" timeLoss="12.73" rerouteNo="0" devices="tripinfo_155" vType="DEFAULT_VEHTYPE" speedFactor="1.12" vaporized=""/>
    <tripinfo id="93" depart="47.00" departLane="1094429400_0" departPos="5.10" departSpeed="0.00" departDelay="0.50" arrival="99.00" arrivalLane="42375997#0_0" arrivalPos="54.58" arrivalSpeed="6.37" duration="52.00" routeLength="338.91" waitingTime="7.00" waitingCount="1" stopTime="0.00" timeLoss="24.00" rerouteNo="0" devices="tripinfo_93" vType="DEFAULT_VEHTYPE" speedFactor="0.92" vaporized=""/>
    <tripinfo id="105" depart="53.00" departLane="-1207112697_0" departPos="5.10" departSpeed="0.00" departDelay="0.50" arrival="99.00" arrivalLane="1094431093_0" arrivalPos="25.20" arrivalSpeed="11.89" duration="46.00" routeLength="303.37" waitingTime="9.00" waitingCount="1" stopTime="0.00" timeLoss="23.62" rerouteNo="0" devices="tripinfo_105" vType="DEFAULT_VEHTYPE" speedFactor="1.07" vaporized=""/>
    <tripinfo id="50" depart="25.00" departLane="42375999_0" departPos="5.10" departSpeed="0.00" departDelay="0.00" arrival="100.00" arrivalLane="42371512#3_0" arrivalPos="199.60" arrivalSpeed="18.53" duration="75.00" routeLength="595.94" waitingTime="13.00" waitingCount="1" stopTime="0.00" timeLoss="27.41" rerouteNo="0" devices="tripinfo_50" vType="DEFAULT_VEHTYPE" speedFactor="0.85" vaporized=""/>
    <tripinfo id="25" depart="13.00" departLane="-42375975#5_0" departPos="5.10" departSpeed="0.00" departDelay="0.50" arrival="101.00" arrivalLane="42375995#3_0" arrivalPos="38.74" arrivalSpeed="11.47" duration="88.00" routeLength="479.92" waitingTime="27.00" waitingCount="2" stopTime="0.00" timeLoss="44.41" rerouteNo="0" devices="tripinfo_25" vType="DEFAULT_VEHTYPE" speedFactor="0.87" vaporized=""/>
    <tripinfo id="61" depart="31.00" departLane="994960236_0" departPos="5.10" departSpeed="0.00" departDelay="0.50" arrival="103.00" arrivalLane="42375990#0_0" arrivalPos="41.92" arrivalSpeed="15.18" duration="72.00" routeLength="148.95" waitingTime="49.00" waitingCount="1" stopTime="0.00" timeLoss="61.53" rerouteNo="0" devices="tripinfo_61" vType="DEFAULT_VEHTYPE" speedFactor="1.12" vaporized=""/>
    <tripinfo id="169" depart="85.00" departLane="42376004_0" departPos="5.10" departSpeed="0.00" departDelay="0.50" arrival="104.00" arrivalLane="-42375991#10_0" arrivalPos="10.79" arrivalSpeed="12.41" duration="19.00" routeLength="167.74" waitingTime="0.00" waitingCount="0" stopTime="0.00" timeLoss="4.54" rerouteNo="0" devices="tripinfo_169" vType="DEFAULT_VEHTYPE" speedFactor="0.94" vaporized=""/>
    <tripinfo id="190" depart="95.00" departLane="42375975#7_0" departPos="5.10" departSpeed="0.00" departDelay="0.00" arrival="104.00" arrivalLane="-42376012#0_0" arrivalPos="27.82" arrivalSpeed="11.80" duration="9.00" routeLength="65.97" waitingTime="0.00" waitingCount="0" stopTime="0.00" timeLoss="2.51" rerouteNo="0" devices="tripinfo_190" vType="DEFAULT_VEHTYPE" speedFactor="0.90" vaporized=""/>
    <tripinfo id="23" depart="12.00" departLane="-42375991#6_0" departPos="5.10" departSpeed="0.00" departDelay="0.50" arrival="106.00" arrivalLane="737470751#1_0" arrivalPos="629.71" arrivalSpeed="23.61" duration="94.00" routeLength="1336.49" waitingTime="0.00" waitingCount="0" stopTime="0.00" timeLoss="27.31" rerouteNo="0" devices="tripinfo_23" vType="DEFAULT_VEHTYPE" speedFactor="0.89" vaporized=""/>
    <tripinfo id="21" depart="11.00" departLane="42375976#0_0" departPos="5.10" departSpeed="0.00" departDelay="0.50" arrival="109.00" arrivalLane="-994960233#0_0" arrivalPos="4.67" arrivalSpeed="8.61" duration="98.00" routeLength="353.18" waitingTime="46.00" waitingCount="3" stopTime="0.00" timeLoss="70.25" rerouteNo="0" devices="tripinfo_21" vType="DEFAULT_VEHTYPE" speedFactor="1.01" vaporized=""/>
    <tripinfo id="62" depart="31.00" departLane="-42376372#1_0" departPos="5.10" departSpeed="0.00" departDelay="0.00" arrival="110.00" arrivalLane="1227721419_0" arrivalPos="266.79" arrivalSpeed="22.50" duration="79.00" routeLength="577.78" waitingTime="27.00" waitingCount="1" stopTime="0.00" timeLoss="43.68" rerouteNo="0" devices="tripinfo_62" vType="DEFAULT_VEHTYPE" speedFactor="1.02" vaporized=""/>
    <tripinfo id="163" depart="82.00" departLane="737470752#0_0" departPos="5.10" departSpeed="0.00" departDelay="0.50" arrival="111.00" arrivalLane="42375977#1_0" arrivalPos="112.91" arrivalSpeed="14.91" duration="29.00" routeLength="348.66" waitingTime="0.00" waitingCount="0" stopTime="0.00" timeLoss="8.88" rerouteNo="0" devices="tripinfo_163" vType="DEFAULT_VEHTYPE" speedFactor="1.13" vaporized=""/>
    <tripinfo id="102" depart="52.00" departLane="-42375990#1_0" departPos="5.10" departSpeed="0.00" departDelay="1.00" arrival="112.00" arrivalLane="-994960236_0" arrivalPos="34.17" arrivalSpeed="13.28" duration="60.00" routeLength="342.48" waitingTime="17.00" waitingCount="1" stopTime="0.00" timeLoss="33.79" rerouteNo="0" devices="tripinfo_102" vType="DEFAULT_VEHTYPE" speedFactor="0.97" vaporized=""/>
    <tripinfo id="31" depart="16.00" departLane="-42375977#1_0" departPos="5.10" departSpeed="0.00" departDelay="0.50" arrival="113.00" arrivalLane="994960231_0" arrivalPos="87.02" arrivalSpeed="15.00" duration="97.00" routeLength="574.24" waitingTime="36.00" waitingCount="2" stopTime="0.00" timeLoss="59.41" rerouteNo="0" devices="tripinfo_31" vType="DEFAULT_VEHTYPE" speedFactor="1.15" vaporized=""/>
    <tripinfo id="51" depart="26.00" departLane="42376000_0" departPos="5.10" departSpeed="0.00" departDelay="0.50" arrival="115.00" arrivalLane="1420646177_0" arrivalPos="0.20" arrivalSpeed="15.21" duration="89.00" routeLength="646.81" waitingTime="14.00" waitingCount="3" stopTime="0.00" timeLoss="52.53" rerouteNo="0" devices="tripinfo_51" vType="DEFAULT_VEHTYPE" speedFactor="1.17" vaporized=""/>
    <tripinfo id="179" depart="90.00" departLane="42375997#1_0" departPos="5.10" departSpeed="0.00" departDelay="0.50" arrival="117.00" arrivalLane="42375998#1_0" arrivalPos="17.46" arrivalSpeed="14.37" duration="27.00" routeLength="203.81" waitingTime="0.00" waitingCount="0" stopTime="0.00" timeLoss="11.40" rerouteNo="0" devices="tripinfo_179" vType="DEFAULT_VEHTYPE" speedFactor="1.06" vaporized=""/>
    <tripinfo id="45" depart="23.00" departLane="42375991#0_0" departPos="5.10" departSpeed="0.00" departDelay="0.50" arrival="118.00" arrivalLane="42371512#3_0" arrivalPos="199.60" arrivalSpeed="23.35" duration="95.00" routeLength="804.98" waitingTime="12.00" waitingCount="3" stopTime="0.00" timeLoss="43.75" rerouteNo="0" devices="tripinfo_45" vType="DEFAULT_VEHTYPE" speedFactor="1.09" vaporized=""/>
    <tripinfo id="96" depart="48.00" departLane="-1207112697_0" departPos="5.10" departSpeed="0.00" departDelay="0.00" arrival="119.00" arrivalLane="-42375991#5_0" arrivalPos="19.79" arrivalSpeed="7.42" duration="71.00" routeLength="461.79" waitingTime="3.00" waitingCount="2" stopTime="0.00" timeLoss="35.88" rerouteNo="0" devices="tripinfo_96" vType="DEFAULT_VEHTYPE" speedFactor="1.01" vaporized=""/>
    <tripinfo id="128" depart="64.00" departLane="42376004_0" departPos="5.10" departSpeed="0.00" departDelay="0.00" arrival="120.00" arrivalLane="42376371#0_0" arrivalPos="15.74" arrivalSpeed="10.82" duration="56.00" routeLength="527.72" waitingTime="0.00" waitingCount="0" stopTime="0.00" timeLoss="18.28" rerouteNo="0" devices="tripinfo_128" vType="DEFAULT_VEHTYPE" speedFactor="1.12" vaporized=""/>
    <tripinfo id="126" depart="63.00" departLane="42376372#1_0" departPos="5.10" departSpeed="0.00" departDelay="0.00" arrival="121.00" arrivalLane="42375975#5_0" arrivalPos="16.14" arrivalSpeed="11.51" duration="58.00" routeLength="252.21" waitingTime="20.00" waitingCount="2" stopTime="0.00" timeLoss="37.97" rerouteNo="0" devices="tripinfo_126" vType="DEFAULT_VEHTYPE" speedFactor="1.03" vaporized=""/>
    <tripinfo id="136" depart="68.00" departLane="42376012#0_0" departPos="5.10" departSpeed="0.00" departDelay="0.00" arrival="122.00" arrivalLane="42376371#2_0" arrivalPos="19.79" arrivalSpeed="11.47" duration="54.00" routeLength="204.65" waitingTime="25.00" waitingCount="1" stopTime="0.00" timeLoss="39.20" rerouteNo="0" devices="tripinfo_136" vType="DEFAULT_VEHTYPE" speedFactor="1.12" vaporized=""/>
    <tripinfo id="121" depart="68.00" departLane="42375976#0_0" departPos="5.10" departSpeed="0.00" departDelay="7.50" arrival="123.00" arrivalLane="-42376001#1_0" arrivalPos="35.39" arrivalSpeed="15.22" duration="55.00" routeLength="347.59" waitingTime="9.00" waitingCount="2" stopTime="0.00" timeLoss="29.09" rerouteNo="0" devices="tripinfo_121" vType="DEFAULT_VEHTYPE" speedFactor="1.10" vaporized=""/>