<?xml version="1.0" encoding="UTF-8"?>

<!-- generated on 2026-05-20T00:06:36.950726+05:30 by Eclipse SUMO sumo 1.26.0
<sumoConfiguration xmlns:xsi="http://www.w3.org/2001/XMLSchema-instance" xsi:noNamespaceSchemaLocation="http://sumo.dlr.de/xsd/sumoConfiguration.xsd">

    <input>
        <net-file value="/Users/nitishpatil/Projects/trafficsense/src/signals/network/intersection.net.xml"/>
        <route-files value="/Users/nitishpatil/Projects/trafficsense/src/signals/network/routes.rou.xml"/>
    </input>

    <output>
        <tripinfo-output value="/Users/nitishpatil/Projects/trafficsense/src/signals/fixed_tripinfo.xml"/>
    </output>

    <time>
        <begin value="0"/>
        <end value="600"/>
    </time>

    <report>
        <verbose value="false"/>
        <no-warnings value="true"/>
        <no-step-log value="true"/>
    </report>

    <traci_server>
        <remote-port value="52782"/>
    </traci_server>

</sumoConfiguration>
-->

<tripinfos xmlns:xsi="http://www.w3.org/2001/XMLSchema-instance" xsi:noNamespaceSchemaLocation="http://sumo.dlr.de/xsd/tripinfo_file.xsd">
    <tripinfo id="f_ns.0" depart="0.00" departLane="n2c_0" departPos="5.10" departSpeed="0.00" departDelay="0.00" arrival="34.00" arrivalLane="c2s_1" arrivalPos="189.60" arrivalSpeed="13.53" duration="34.00" routeLength="394.90" waitingTime="0.00" waitingCount="0" stopTime="0.00" timeLoss="4.68" rerouteNo="0" devices="tripinfo_f_ns.0" vType="car" speedFactor="1.06" vaporized=""/>
    <tripinfo id="f_sn.0" depart="0.00" departLane="s2c_0" departPos="5.10" departSpeed="0.00" departDelay="0.00" arrival="35.00" arrivalLane="c2n_1" arrivalPos="189.60" arrivalSpeed="12.48" duration="35.00" routeLength="394.90" waitingTime="0.00" waitingCount="0" stopTime="0.00" timeLoss="4.28" rerouteNo="0" devices="tripinfo_f_sn.0" vType="car" speedFactor="0.94" vaporized=""/>
    <tripinfo id="f_se.0" depart="3.00" departLane="s2c_0" departPos="5.10" departSpeed="0.00" departDelay="3.00" arrival="52.00" arrivalLane="c2e_0" arrivalPos="189.60" arrivalSpeed="13.27" duration="49.00" routeLength="385.83" waitingTime="11.00" waitingCount="2" stopTime="0.00" timeLoss="20.70" rerouteNo="0" devices="tripinfo_f_se.0" vType="car" speedFactor="1.05" vaporized=""/>
    <tripinfo id="f_sw.0" depart="6.00" departLane="s2c_0" departPos="5.10" departSpeed="0.00" departDelay="6.00" arrival="52.00" arrivalLane="c2w_0" arrivalPos="189.60" arrivalSpeed="11.67" duration="46.00" routeLength="397.32" waitingTime="4.00" waitingCount="1" stopTime="0.00" timeLoss="12.66" rerouteNo="0" devices="tripinfo_f_sw.0" vType="car" speedFactor="0.89" vaporized=""/>
    <tripinfo id="f_sn.1" depart="9.00" departLane="s2c_0" departPos="5.10" departSpeed="0.00" departDelay="1.80" arrival="56.00" arrivalLane="c2n_1" arrivalPos="189.60" arrivalSpeed="13.28" duration="47.00" routeLength="394.90" waitingTime="6.00" waitingCount="2" stopTime="0.00" timeLoss="17.63" rerouteNo="0" devices="tripinfo_f_sn.1" vType="car" speedFactor="1.12" vaporized=""/>
    <tripinfo id="f_sn.2" depart="15.00" departLane="s2c_0" departPos="5.10" departSpeed="0.00" departDelay="0.60" arrival="58.00" arrivalLane="c2n_1" arrivalPos="189.60" arrivalSpeed="12.76" duration="43.00" routeLength="394.90" waitingTime="1.00" waitingCount="1" stopTime="0.00" timeLoss="11.93" rerouteNo="0" devices="tripinfo_f_sn.2" vType="car" speedFactor="0.93" vaporized=""/>
    <tripinfo id="f_ne.0" depart="3.00" departLane="n2c_0" departPos="5.10" departSpeed="0.00" departDelay="3.00" arrival="61.00" arrivalLane="c2e_0" arrivalPos="189.60" arrivalSpeed="13.80" duration="58.00" routeLength="397.32" waitingTime="18.00" waitingCount="1" stopTime="0.00" timeLoss="28.13" rerouteNo="0" devices="tripinfo_f_ne.0" vType="car" speedFactor="1.03" vaporized=""/>
    <tripinfo id="f_ew.0" depart="0.00" departLane="e2c_0" departPos="5.10" departSpeed="0.00" departDelay="0.00" arrival="64.00" arrivalLane="c2w_1" arrivalPos="189.60" arrivalSpeed="13.54" duration="64.00" routeLength="394.90" waitingTime="24.00" waitingCount="1" stopTime="0.00" timeLoss="34.60" rerouteNo="0" devices="tripinfo_f_ew.0" vType="car" speedFactor="1.01" vaporized=""/>
    <tripinfo id="f_we.0" depart="0.00" departLane="w2c_0" departPos="5.10" departSpeed="0.00" departDelay="0.00" arrival="64.00" arrivalLane="c2e_1" arrivalPos="189.60" arrivalSpeed="13.27" duration="64.00" routeLength="394.90" waitingTime="23.00" waitingCount="1" stopTime="0.00" timeLoss="35.00" rerouteNo="0" devices="tripinfo_f_we.0" vType="car" speedFactor="1.08" vaporized=""/>
    <tripinfo id="f_en.0" depart="3.00" departLane="e2c_0" departPos="5.10" departSpeed="0.00" departDelay="3.00" arrival="79.00" arrivalLane="c2n_0" arrivalPos="189.60" arrivalSpeed="12.04" duration="76.00" routeLength="385.83" waitingTime="32.00" waitingCount="2" stopTime="0.00" timeLoss="45.53" rerouteNo="0" devices="tripinfo_f_en.0" vType="car" speedFactor="0.94" vaporized=""/>
    <tripinfo id="f_es.0" depart="6.00" departLane="e2c_0" departPos="5.10" departSpeed="0.00" departDelay="6.00" arrival="80.00" arrivalLane="c2s_0" arrivalPos="189.60" arrivalSpeed="11.86" duration="74.00" routeLength="397.32" waitingTime="23.00" waitingCount="3" stopTime="0.00" timeLoss="39.11" rerouteNo="0" devices="tripinfo_f_es.0" vType="car" speedFactor="0.86" vaporized=""/>
    <tripinfo id="f_ew.1" depart="15.00" departLane="e2c_0" departPos="5.10" departSpeed="0.00" departDelay="0.60" arrival="83.00" arrivalLane="c2w_1" arrivalPos="189.60" arrivalSpeed="11.97" duration="68.00" routeLength="394.90" waitingTime="22.00" waitingCount="2" stopTime="0.00" timeLoss="34.93" rerouteNo="0" devices="tripinfo_f_ew.1" vType="car" speedFactor="0.88" vaporized=""/>
    <tripinfo id="f_ew.2" depart="29.00" departLane="e2c_0" departPos="5.10" departSpeed="0.00" departDelay="0.20" arrival="85.00" arrivalLane="c2w_1" arrivalPos="189.60" arrivalSpeed="12.73" duration="56.00" routeLength="394.90" waitingTime="8.00" waitingCount="1" stopTime="0.00" timeLoss="25.94" rerouteNo="0" devices="tripinfo_f_ew.2" vType="car" speedFactor="0.97" vaporized=""/>
    <tripinfo id="f_ew.3" depart="44.00" departLane="e2c_0" departPos="5.10" departSpeed="0.00" departDelay="0.80" arrival="86.00" arrivalLane="c2w_1" arrivalPos="189.60" arrivalSpeed="12.77" duration="42.00" routeLength="394.90" waitingTime="2.00" waitingCount="1" stopTime="0.00" timeLoss="13.38" rerouteNo="0" devices="tripinfo_f_ew.3" vType="car" speedFactor="1.01" vaporized=""/>
    <tripinfo id="f_ew.4" depart="58.00" departLane="e2c_0" departPos="5.10" departSpeed="0.00" departDelay="0.40" arrival="92.00" arrivalLane="c2w_1" arrivalPos="189.60" arrivalSpeed="12.39" duration="34.00" routeLength="394.90" waitingTime="0.00" waitingCount="0" stopTime="0.00" timeLoss="4.84" rerouteNo="0" devices="tripinfo_f_ew.4" vType="car" speedFactor="1.10" vaporized=""/>
    <tripinfo id="f_es.1" depart="64.00" departLane="e2c_0" departPos="5.10" departSpeed="0.00" departDelay="4.00" arrival="100.00" arrivalLane="c2s_0" arrivalPos="189.60" arrivalSpeed="13.83" duration="36.00" routeLength="397.32" waitingTime="0.00" waitingCount="0" stopTime="0.00" timeLoss="6.81" rerouteNo="0" devices="tripinfo_f_es.1" vType="car" speedFactor="1.09" vaporized=""/>
    <tripinfo id="f_en.1" depart="61.00" departLane="e2c_0" departPos="5.10" departSpeed="0.00" departDelay="1.00" arrival="102.00" arrivalLane="c2n_0" arrivalPos="189.60" arrivalSpeed="13.54" duration="41.00" routeLength="385.83" waitingTime="2.00" waitingCount="1" stopTime="0.00" timeLoss="12.59" rerouteNo="0" devices="tripinfo_f_en.1" vType="car" speedFactor="1.04" vaporized=""/>
    <tripinfo id="f_wn.0" depart="3.00" departLane="w2c_0" departPos="5.10" departSpeed="0.00" departDelay="3.00" arrival="105.00" arrivalLane="c2n_0" arrivalPos="189.60" arrivalSpeed="13.52" duration="102.00" routeLength="397.32" waitingTime="55.00" waitingCount="3" stopTime="0.00" timeLoss="72.91" rerouteNo="0" devices="tripinfo_f_wn.0" vType="car" speedFactor="1.09" vaporized=""/>
    <tripinfo id="f_wn.1" depart="61.00" departLane="w2c_0" departPos="5.10" departSpeed="0.00" departDelay="1.00" arrival="107.00" arrivalLane="c2n_0" arrivalPos="189.60" arrivalSpeed="12.83" duration="46.00" routeLength="397.32" waitingTime="7.00" waitingCount="1" stopTime="0.00" timeLoss="16.58" rerouteNo="0" devices="tripinfo_f_wn.1" vType="car" speedFactor="1.00" vaporized=""/>
    <tripinfo id="f_sn.3" depart="22.00" departLane="s2c_0" departPos="5.10" departSpeed="0.00" departDelay="0.40" arrival="112.00" arrivalLane="c2n_1" arrivalPos="189.60" arrivalSpeed="13.36" duration="90.00" routeLength="394.90" waitingTime="45.00" waitingCount="2" stopTime="0.00" timeLoss="60.83" rerouteNo="0" devices="tripinfo_f_sn.3" vType="car" speedFactor="1.16" vaporized=""/>
    <tripinfo id="f_sn.4" depart="29.00" departLane="s2c_0" departPos="5.10" departSpeed="0.00" departDelay="0.20" arrival="114.00" arrivalLane="c2n_1" arrivalPos="189.60" arrivalSpeed="13.67" duration="85.00" routeLength="394.90" waitingTime="42.00" waitingCount="1" stopTime="0.00" timeLoss="56.01" rerouteNo="0" devices="tripinfo_f_sn.4" vType="car" speedFactor="1.01" vaporized=""/>
    <tripinfo id="f_sw.1" depart="35.00" departLane="s2c_0" departPos="5.10" departSpeed="0.00" departDelay="5.00" arrival="120.00" arrivalLane="c2w_0" arrivalPos="189.60" arrivalSpeed="12.05" duration="85.00" routeLength="397.32" waitingTime="43.00" waitingCount="2" stopTime="0.00" timeLoss="53.37" rerouteNo="0" devices="tripinfo_f_sw.1" vType="car" speedFactor="0.95" vaporized=""/>
    <tripinfo id="f_sw.2" depart="64.00" departLane="s2c_0" departPos="5.10" departSpeed="0.00" departDelay="4.00" arrival="121.00" arrivalLane="c2w_0" arrivalPos="189.60" arrivalSpeed="13.44" duration="57.00" routeLength="397.32" waitingTime="14.00" waitingCount="2" stopTime="0.00" timeLoss="27.75" rerouteNo="0" devices="tripinfo_f_sw.2" vType="car" speedFactor="1.04" vaporized=""/>
    <tripinfo id="f_sw.3" depart="92.00" departLane="s2c_0" departPos="5.10" departSpeed="0.00" departDelay="2.00" arrival="128.00" arrivalLane="c2w_0" arrivalPos="189.60" arrivalSpeed="13.18" duration="36.00" routeLength="397.32" waitingTime="0.00" waitingCount="0" stopTime="0.00" timeLoss="5.43" rerouteNo="0" devices="tripinfo_f_sw.3" vType="car" speedFactor="0.99" vaporized=""/>
    <tripinfo id="f_se.1" depart="32.00" departLane="s2c_0" departPos="5.10" departSpeed="0.00" departDelay="2.00" arrival="132.00" arrivalLane="c2e_0" arrivalPos="189.60" arrivalSpeed="12.49" duration="100.00" routeLength="385.83" waitingTime="52.00" waitingCount="2" stopTime="0.00" timeLoss="68.89" rerouteNo="0" devices="tripinfo_f_se.1" vType="car" speedFactor="0.92" vaporized=""/>
    <tripinfo id="f_sn.5" depart="38.00" departLane="s2c_0" departPos="5.10" departSpeed="0.00" departDelay="2.00" arrival="134.00" arrivalLane="c2n_1" arrivalPos="189.60" arrivalSpeed="11.90" duration="96.00" routeLength="394.90" waitingTime="46.00" waitingCount="2" stopTime="0.00" timeLoss="65.29" rerouteNo="0" devices="tripinfo_f_sn.5" vType="car" speedFactor="0.93" vaporized=""/>
    <tripinfo id="f_sn.6" depart="44.00" departLane="s2c_0" departPos="5.10" departSpeed="0.00" departDelay="0.80" arrival="136.00" arrivalLane="c2n_1" arrivalPos="189.60" arrivalSpeed="12.64" duration="92.00" routeLength="394.90" waitingTime="40.00" waitingCount="2" stopTime="0.00" timeLoss="63.08" rerouteNo="0" devices="tripinfo_f_sn.6" vType="car" speedFactor="1.15" vaporized=""/>
    <tripinfo id="f_sn.7" depart="51.00" departLane="s2c_0" departPos="5.10" departSpeed="0.00" departDelay="0.60" arrival="138.00" arrivalLane="c2n_1" arrivalPos="189.60" arrivalSpeed="13.52" duration="87.00" routeLength="394.90" waitingTime="36.00" waitingCount="3" stopTime="0.00" timeLoss="57.74" rerouteNo="0" devices="tripinfo_f_sn.7" vType="car" speedFactor="1.02" vaporized=""/>
    <tripinfo id="f_sn.8" depart="58.00" departLane="s2c_0" departPos="5.10" departSpeed="0.00" departDelay="0.40" arrival="139.00" arrivalLane="c2n_1" arrivalPos="189.60" arrivalSpeed="12.75" duration="81.00" routeLength="394.90" waitingTime="32.00" waitingCount="3" stopTime="0.00" timeLoss="52.48" rerouteNo="0" devices="tripinfo_f_sn.8" vType="car" speedFactor="1.18" vaporized=""/>
    <tripinfo id="f_se.2" depart="61.00" departLane="s2c_0" departPos="5.10" departSpeed="0.00" departDelay="1.00" arrival="142.00" arrivalLane="c2e_0" arrivalPos="189.60" arrivalSpeed="13.72" duration="81.00" routeLength="385.83" waitingTime="29.00" waitingCount="2" stopTime="0.00" timeLoss="52.58" rerouteNo="0" devices="tripinfo_f_se.2" vType="car" speedFactor="1.09" vaporized=""/>
    <tripinfo id="f_sn.9" depart="67.00" departLane="s2c_0" departPos="5.10" departSpeed="0.00" departDelay="2.20" arrival="147.00" arrivalLane="c2n_1" arrivalPos="189.60" arrivalSpeed="9.01" duration="80.00" routeLength="394.90" waitingTime="23.00" waitingCount="2" stopTime="0.00" timeLoss="46.57" rerouteNo="0" devices="tripinfo_f_sn.9" vType="car" speedFactor="0.85" vaporized=""/>
    <tripinfo id="f_sn.10" depart="72.00" departLane="s2c_0" departPos="5.10" departSpeed="0.00" departDelay="0.00" arrival="149.00" arrivalLane="c2n_0" arrivalPos="189.60" arrivalSpeed="11.05" duration="77.00" routeLength="394.90" waitingTime="19.00" waitingCount="2" stopTime="0.00" timeLoss="48.43" rerouteNo="0" devices="tripinfo_f_sn.10" vType="car" speedFactor="1.17" vaporized=""/>
    <tripinfo id="f_sn.11" depart="80.00" departLane="s2c_0" departPos="5.10" departSpeed="0.00" departDelay="0.80" arrival="150.00" arrivalLane="c2n_1" arrivalPos="189.60" arrivalSpeed="13.58" duration="70.00" routeLength="394.90" waitingTime="14.00" waitingCount="2" stopTime="0.00" timeLoss="41.09" rerouteNo="0" devices="tripinfo_f_sn.11" vType="car" speedFactor="1.00" vaporized=""/>
    <tripinfo id="f_ne.1" depart="32.00" departLane="n2c_0" departPos="5.10" departSpeed="0.00" departDelay="2.00" arrival="155.00" arrivalLane="c2e_0" arrivalPos="189.60" arrivalSpeed="11.23" duration="123.00" routeLength="397.32" waitingTime="77.00" waitingCount="2" stopTime="0.00" timeLoss="87.34" rerouteNo="0" devices="tripinfo_f_ne.1" vType="car" speedFactor="0.83" vaporized=""/>
    <tripinfo id="f_ew.5" depart="72.00" departLane="e2c_0" departPos="5.10" departSpeed="0.00" departDelay="0.00" arrival="155.00" arrivalLane="c2w_1" arrivalPos="189.60" arrivalSpeed="13.82" duration="83.00" routeLength="394.90" waitingTime="42.00" waitingCount="1" stopTime="0.00" timeLoss="53.60" rerouteNo="0" devices="tripinfo_f_ew.5" vType="car" speedFactor="1.02" vaporized=""/>
    <tripinfo id="f_ew.6" depart="87.00" departLane="e2c_0" departPos="5.10" departSpeed="0.00" departDelay="0.60" arrival="156.00" arrivalLane="c2w_1" arrivalPos="189.60" arrivalSpeed="12.94" duration="69.00" routeLength="394.90" waitingTime="28.00" waitingCount="1" stopTime="0.00" timeLoss="40.53" rerouteNo="0" devices="tripinfo_f_ew.6" vType="car" speedFactor="1.02" vaporized=""/>
    <tripinfo id="f_ew.7" depart="101.00" departLane="e2c_0" departPos="5.10" departSpeed="0.00" departDelay="0.20" arrival="158.00" arrivalLane="c2w_1" arrivalPos="189.60" arrivalSpeed="13.22" duration="57.00" routeLength="394.90" waitingTime="16.00" waitingCount="1" stopTime="0.00" timeLoss="28.46" rerouteNo="0" devices="tripinfo_f_ew.7" vType="car" speedFactor="1.04" vaporized=""/>
    <tripinfo id="f_ew.8" depart="116.00" departLane="e2c_0" departPos="5.10" departSpeed="0.00" departDelay="0.80" arrival="160.00" arrivalLane="c2w_1" arrivalPos="189.60" arrivalSpeed="12.58" duration="44.00" routeLength="394.90" waitingTime="4.00" waitingCount="1" stopTime="0.00" timeLoss="14.20" rerouteNo="0" devices="tripinfo_f_ew.8" vType="car" speedFactor="0.96" vaporized=""/>
    <tripinfo id="f_es.2" depart="123.00" departLane="e2c_0" departPos="5.10" departSpeed="0.00" departDelay="3.00" arrival="164.00" arrivalLane="c2s_0" arrivalPos="189.60" arrivalSpeed="13.45" duration="41.00" routeLength="397.32" waitingTime="3.00" waitingCount="1" stopTime="0.00" timeLoss="11.37" rerouteNo="0" devices="tripinfo_f_es.2" vType="car" speedFactor="1.00" vaporized=""/>
    <tripinfo id="f_en.2" depart="120.00" departLane="e2c_0" departPos="5.10" departSpeed="0.00" departDelay="0.00" arrival="167.00" arrivalLane="c2n_0" arrivalPos="189.60" arrivalSpeed="13.02" duration="47.00" routeLength="385.83" waitingTime="1.00" waitingCount="1" stopTime="0.00" timeLoss="18.03" rerouteNo="0" devices="tripinfo_f_en.2" vType="car" speedFactor="1.03" vaporized=""/>
    <tripinfo id="f_ew.9" depart="130.00" departLane="e2c_0" departPos="5.10" departSpeed="0.00" departDelay="0.40" arrival="169.00" arrivalLane="c2w_1" arrivalPos="189.60" arrivalSpeed="13.27" duration="39.00" routeLength="394.90" waitingTime="0.00" waitingCount="0" stopTime="0.00" timeLoss="10.18" rerouteNo="0" devices="tripinfo_f_ew.9" vType="car" speedFactor="1.01" vaporized=""/>
    <tripinfo id="f_wn.2" depart="120.00" departLane="w2c_0" departPos="5.10" departSpeed="0.00" departDelay="0.00" arrival="173.00" arrivalLane="c2n_0" arrivalPos="189.60" arrivalSpeed="13.74" duration="53.00" routeLength="397.32" waitingTime="13.00" waitingCount="1" stopTime="0.00" timeLoss="23.48" rerouteNo="0" devices="tripinfo_f_wn.2" vType="car" speedFactor="1.02" vaporized=""/>
    <tripinfo id="f_ws.0" depart="6.00" departLane="w2c_0" departPos="5.10" departSpeed="0.00" departDelay="6.00" arrival="174.00" arrivalLane="c2s_0" arrivalPos="189.60" arrivalSpeed="13.52" duration="168.00" routeLength="385.83" waitingTime="125.00" waitingCount="2" stopTime="0.00" timeLoss="138.96" rerouteNo="0" devices="tripinfo_f_ws.0" vType="car" speedFactor="1.03" vaporized=""/>
    <tripinfo id="f_we.1" depart="15.00" departLane="w2c_0" departPos="5.10" departSpeed="0.00" departDelay="0.60" arrival="177.00" arrivalLane="c2e_1" arrivalPos="189.60" arrivalSpeed="12.65" duration="162.00" routeLength="394.90" waitingTime="115.00" waitingCount="2" stopTime="0.00" timeLoss="131.77" rerouteNo="0" devices="tripinfo_f_we.1" vType="car" speedFactor="0.94" vaporized=""/>
    <tripinfo id="f_ew.10" depart="144.00" departLane="e2c_0" departPos="5.10" departSpeed="0.00" departDelay="0.00" arrival="177.00" arrivalLane="c2w_1" arrivalPos="189.60" arrivalSpeed="8.21" duration="33.00" routeLength="394.90" waitingTime="0.00" waitingCount="0" stopTime="0.00" timeLoss="4.36" rerouteNo="0" devices="tripinfo_f_ew.10" vType="car" speedFactor="1.09" vaporized=""/>
    <tripinfo id="f_we.2" depart="29.00" departLane="w2c_0" departPos="5.10" departSpeed="0.00" departDelay="0.20" arrival="180.00" arrivalLane="c2e_1" arrivalPos="189.60" arrivalSpeed="11.40" duration="151.00" routeLength="394.90" waitingTime="104.00" waitingCount="1" stopTime="0.00" timeLoss="118.69" rerouteNo="0" devices="tripinfo_f_we.2" vType="car" speedFactor="0.89" vaporized=""/>
    <tripinfo id="f_we.3" depart="44.00" departLane="w2c_0" departPos="5.10" departSpeed="0.00" departDelay="0.80" arrival="182.00" arrivalLane="c2e_1" arrivalPos="189.60" arrivalSpeed="13.24" duration="138.00" routeLength="394.90" waitingTime="97.00" waitingCount="1" stopTime="0.00" timeLoss="108.92" rerouteNo="0" devices="tripinfo_f_we.3" vType="car" speedFactor="1.17" vaporized=""/>
    <tripinfo id="f_we.4" depart="58.00" departLane="w2c_0" departPos="5.10" departSpeed="0.00" departDelay="0.40" arrival="184.00" arrivalLane="c2e_1" arrivalPos="189.60" arrivalSpeed="11.76" duration="126.00" routeLength="394.90" waitingTime="81.00" waitingCount="1" stopTime="0.00" timeLoss="93.90" rerouteNo="0" devices="tripinfo_f_we.4" vType="car" speedFactor="0.90" vaporized=""/>
    <tripinfo id="f_ws.1" depart="64.00" departLane="w2c_0" departPos="5.10" departSpeed="0.00" departDelay="4.00" arrival="187.00" arrivalLane="c2s_0" arrivalPos="189.60" arrivalSpeed="12.08" duration="123.00" routeLength="385.83" waitingTime="78.00" waitingCount="1" stopTime="0.00" timeLoss="91.38" rerouteNo="0" devices="tripinfo_f_ws.1" vType="car" speedFactor="0.90" vaporized=""/>
    <tripinfo id="f_we.5" depart="72.00" departLane="w2c_0" departPos="5.10" departSpeed="0.00" departDelay="0.00" arrival="189.00" arrivalLane="c2e_1" arrivalPos="189.60" arrivalSpeed="12.76" duration="117.00" routeLength="394.90" waitingTime="73.00" waitingCount="1" stopTime="0.00" timeLoss="87.73" rerouteNo="0" devices="tripinfo_f_we.5" vType="car" speedFactor="1.10" vaporized=""/>
    <tripinfo id="f_we.6" depart="87.00" departLane="w2c_0" departPos="5.10" departSpeed="0.00" departDelay="0.60" arrival="191.00" arrivalLane="c2e_1" arrivalPos="189.60" arrivalSpeed="13.39" duration="104.00" routeLength="394.90" waitingTime="59.00" waitingCount="1" stopTime="0.00" timeLoss="74.05" rerouteNo="0" devices="tripinfo_f_we.6" vType="car" speedFactor="0.97" vaporized=""/>
    <tripinfo id="f_we.7" depart="101.00" departLane="w2c_0" departPos="5.10" departSpeed="0.00" departDelay="0.20" arrival="193.00" arrivalLane="c2e_1" arrivalPos="189.60" arrivalSpeed="10.14" duration="92.00" routeLength="394.90" waitingTime="48.00" waitingCount="1" stopTime="0.00" timeLoss="62.92" rerouteNo="0" devices="tripinfo_f_we.7" vType="car" speedFactor="1.02" vaporized=""/>
    <tripinfo id="f_sn.12" depart="87.00" departLane="s2c_0" departPos="5.10" departSpeed="0.00" departDelay="0.60" arrival="198.00" arrivalLane="c2n_1" arrivalPos="189.60" arrivalSpeed="13.05" duration="111.00" routeLength="394.90" waitingTime="52.00" waitingCount="3" stopTime="0.00" timeLoss="81.99" rerouteNo="0" devices="tripinfo_f_sn.12" vType="car" speedFactor="1.14" vaporized=""/>
    <tripinfo id="f_sw.4" depart="122.00" departLane="s2c_0" departPos="5.10" departSpeed="0.00" departDelay="2.00" arrival="207.00" arrivalLane="c2w_0" arrivalPos="189.60" arrivalSpeed="12.87" duration="85.00" routeLength="397.32" waitingTime="44.00" waitingCount="2" stopTime="0.00" timeLoss="55.44" rerouteNo="0" devices="tripinfo_f_sw.4" vType="car" speedFactor="1.09" vaporized=""/>
    <tripinfo id="f_sw.5" depart="153.00" departLane="s2c_0" departPos="5.10" departSpeed="0.00" departDelay="3.00" arrival="209.00" arrivalLane="c2w_0" arrivalPos="189.60" arrivalSpeed="13.45" duration="56.00" routeLength="397.32" waitingTime="12.00" waitingCount="2" stopTime="0.00" timeLoss="26.73" rerouteNo="0" devices="tripinfo_f_sw.5" vType="car" speedFactor="1.10" vaporized=""/>
    <tripinfo id="f_se.3" depart="90.00" departLane="s2c_0" departPos="5.10" departSpeed="0.00" departDelay="0.00" arrival="211.00" arrivalLane="c2e_0" arrivalPos="189.60" arrivalSpeed="12.75" duration="121.00" routeLength="385.83" waitingTime="60.00" waitingCount="4" stopTime="0.00" timeLoss="92.41" rerouteNo="0" devices="tripinfo_f_se.3" vType="car" speedFactor="1.02" vaporized=""/>
    <tripinfo id="f_sn.13" depart="95.00" departLane="s2c_0" departPos="5.10" departSpeed="0.00" departDelay="1.40" arrival="215.00" arrivalLane="c2n_1" arrivalPos="189.60" arrivalSpeed="11.52" duration="120.00" routeLength="394.90" waitingTime="57.00" waitingCount="3" stopTime="0.00" timeLoss="87.56" rerouteNo="0" devices="tripinfo_f_sn.13" vType="car" speedFactor="0.88" vaporized=""/>
    <tripinfo id="f_sn.14" depart="101.00" departLane="s2c_0" departPos="5.10" departSpeed="0.00" departDelay="0.20" arrival="217.00" arrivalLane="c2n_1" arrivalPos="189.60" arrivalSpeed="12.65" duration="116.00" routeLength="394.90" waitingTime="54.00" waitingCount="3" stopTime="0.00" timeLoss="84.40" rerouteNo="0" devices="tripinfo_f_sn.14" vType="car" speedFactor="0.91" vaporized=""/>
    <tripinfo id="f_sn.15" depart="108.00" departLane="s2c_0" departPos="5.10" departSpeed="0.00" departDelay="0.00" arrival="219.00" arrivalLane="c2n_1" arrivalPos="189.60" arrivalSpeed="12.44" duration="111.00" routeLength="394.90" waitingTime="54.00" waitingCount="3" stopTime="0.00" timeLoss="81.08" rerouteNo="0" devices="tripinfo_f_sn.15" vType="car" speedFactor="0.97" vaporized=""/>
    <tripinfo id="f_sn.16" depart="116.00" departLane="s2c_0" departPos="5.10" departSpeed="0.00" departDelay="0.80" arrival="220.00" arrivalLane="c2n_1" arrivalPos="189.60" arrivalSpeed="13.27" duration="104.00" routeLength="394.90" waitingTime="45.00" waitingCount="2" stopTime="0.00" timeLoss="75.53" rerouteNo="0" devices="tripinfo_f_sn.16" vType="car" speedFactor="1.06" vaporized=""/>
    <tripinfo id="f_sw.6" depart="184.00" departLane="s2c_0" departPos="5.10" departSpeed="0.00" departDelay="4.00" arrival="223.00" arrivalLane="c2w_0" arrivalPos="189.60" arrivalSpeed="13.24" duration="39.00" routeLength="397.32" waitingTime="1.00" waitingCount="1" stopTime="0.00" timeLoss="9.48" rerouteNo="0" devices="tripinfo_f_sw.6" vType="car" speedFactor="1.00" vaporized=""/>
    <tripinfo id="f_se.4" depart="120.00" departLane="s2c_0" departPos="5.10" departSpeed="0.00" departDelay="0.00" arrival="224.00" arrivalLane="c2e_0" arrivalPos="189.60" arrivalSpeed="13.80" duration="104.00" routeLength="385.83" waitingTime="45.00" waitingCount="2" stopTime="0.00" timeLoss="75.37" rerouteNo="0" devices="tripinfo_f_se.4" vType="car" speedFactor="1.01" vaporized=""/>
    <tripinfo id="f_sn.17" depart="125.00" departLane="s2c_0" departPos="5.10" departSpeed="0.00" departDelay="2.60" arrival="227.00" arrivalLane="c2n_1" arrivalPos="189.60" arrivalSpeed="12.86" duration="102.00" routeLength="394.90" waitingTime="44.00" waitingCount="2" stopTime="0.00" timeLoss="72.31" rerouteNo="0" devices="tripinfo_f_sn.17" vType="car" speedFactor="0.98" vaporized=""/>
    <tripinfo id="f_sn.18" depart="130.00" departLane="s2c_0" departPos="5.10" departSpeed="0.00" departDelay="0.40" arrival="229.00" arrivalLane="c2n_1" arrivalPos="189.60" arrivalSpeed="13.78" duration="99.00" routeLength="394.90" waitingTime="43.00" waitingCount="2" stopTime="0.00" timeLoss="69.67" rerouteNo="0" devices="tripinfo_f_sn.18" vType="car" speedFactor="1.04" vaporized=""/>
    <tripinfo id="f_sn.19" depart="137.00" departLane="s2c_0" departPos="5.10" departSpeed="0.00" departDelay="0.20" arrival="232.00" arrivalLane="c2n_1" arrivalPos="189.60" arrivalSpeed="11.90" duration="95.00" routeLength="394.90" waitingTime="39.00" waitingCount="2" stopTime="0.00" timeLoss="62.59" rerouteNo="0" devices="tripinfo_f_sn.19" vType="car" speedFactor="0.89" vaporized=""/>
    <tripinfo id="f_sn.20" depart="144.00" departLane="s2c_0" departPos="5.10" departSpeed="0.00" departDelay="0.00" arrival="234.00" arrivalLane="c2n_1" arrivalPos="189.60" arrivalSpeed="12.79" duration="90.00" routeLength="394.90" waitingTime="35.00" waitingCount="2" stopTime="0.00" timeLoss="58.33" rerouteNo="0" devices="tripinfo_f_sn.20" vType="car" speedFactor="0.92" vaporized=""/>
    <tripinfo id="f_se.5" depart="150.00" departLane="s2c_0" departPos="5.10" departSpeed="0.00" departDelay="0.00" arrival="235.00" arrivalLane="c2e_0" arrivalPos="189.60" arrivalSpeed="13.12" duration="85.00" routeLength="385.83" waitingTime="30.00" waitingCount="2" stopTime="0.00" timeLoss="56.46" rerouteNo="0" devices="tripinfo_f_se.5" vType="car" speedFactor="1.12" vaporized=""/>
    <tripinfo id="f_sn.21" depart="156.00" departLane="s2c_0" departPos="5.10" departSpeed="0.00" departDelay="4.80" arrival="239.00" arrivalLane="c2n_1" arrivalPos="189.60" arrivalSpeed="12.06" duration="83.00" routeLength="394.90" waitingTime="26.00" waitingCount="2" stopTime="0.00" timeLoss="52.39" rerouteNo="0" devices="tripinfo_f_sn.21" vType="car" speedFactor="0.96" vaporized=""/>
    <tripinfo id="f_ne.2" depart="61.00" departLane="n2c_0" departPos="5.10" departSpeed="0.00" departDelay="1.00" arrival="242.00" arrivalLane="c2e_0" arrivalPos="189.60" arrivalSpeed="13.69" duration="181.00" routeLength="397.32" waitingTime="132.00" waitingCount="4" stopTime="0.00" timeLoss="151.60" rerouteNo="0" devices="tripinfo_f_ne.2" vType="car" speedFactor="1.03" vaporized=""/>
    <tripinfo id="f_we.8" depart="116.00" departLane="w2c_0" departPos="5.10" departSpeed="0.00" departDelay="0.80" arrival="245.00" arrivalLane="c2e_1" arrivalPos="189.60" arrivalSpeed="13.16" duration="129.00" routeLength="394.90" waitingTime="77.00" waitingCount="2" stopTime="0.00" timeLoss="99.74" rerouteNo="0" devices="tripinfo_f_we.8" vType="car" speedFactor="0.98" vaporized=""/>
    <tripinfo id="f_ew.11" depart="159.00" departLane="e2c_0" departPos="5.10" departSpeed="0.00" departDelay="0.60" arrival="245.00" arrivalLane="c2w_1" arrivalPos="189.60" arrivalSpeed="12.20" duration="86.00" routeLength="394.90" waitingTime="45.00" waitingCount="1" stopTime="0.00" timeLoss="53.82" rerouteNo="0" devices="tripinfo_f_ew.11" vType="car" speedFactor="0.89" vaporized=""/>
    <tripinfo id="f_ew.12" depart="173.00" departLane="e2c_0" departPos="5.10" departSpeed="0.00" departDelay="0.20" arrival="247.00" arrivalLane="c2w_1" arrivalPos="189.60" arrivalSpeed="7.93" duration="74.00" routeLength="394.90" waitingTime="33.00" waitingCount="1" stopTime="0.00" timeLoss="43.13" rerouteNo="0" devices="tripinfo_f_ew.12" vType="car" speedFactor="0.93" vaporized=""/>
    <tripinfo id="f_es.3" depart="183.00" departLane="e2c_0" departPos="5.10" departSpeed="0.00" departDelay="3.00" arrival="253.00" arrivalLane="c2s_0" arrivalPos="189.60" arrivalSpeed="13.32" duration="70.00" routeLength="397.32" waitingTime="27.00" waitingCount="2" stopTime="0.00" timeLoss="40.28" rerouteNo="0" devices="tripinfo_f_es.3" vType="car" speedFactor="1.07" vaporized=""/>
    <tripinfo id="f_en.3" depart="180.00" departLane="e2c_0" departPos="5.10" departSpeed="0.00" departDelay="0.00" arrival="255.00" arrivalLane="c2n_0" arrivalPos="189.60" arrivalSpeed="12.96" duration="75.00" routeLength="385.83" waitingTime="31.00" waitingCount="2" stopTime="0.00" timeLoss="46.09" rerouteNo="0" devices="tripinfo_f_en.3" vType="car" speedFactor="0.99" vaporized=""/>