<?xml version="1.0" encoding="UTF-8"?>

<!-- generated on 2026-05-20T00:02:39.077733+05:30 by Eclipse SUMO sumo 1.26.0
<sumoConfiguration xmlns:xsi="http://www.w3.org/2001/XMLSchema-instance" xsi:noNamespaceSchemaLocation="http://sumo.dlr.de/xsd/sumoConfiguration.xsd">

    <input>
        <net-file value="/Users/nitishpatil/Projects/trafficsense/src/signals/network/intersection.net.xml"/>
        <route-files value="/Users/nitishpatil/Projects/trafficsense/src/signals/network/routes.rou.xml"/>
    </input>

    <output>
        <tripinfo-output value="/Users/nitishpatil/Projects/trafficsense/src/signals/fixed_tripinfo.xml"/>
    </output>

    <time>
        <begin value="0"/>
        <end value="600"/>
    </time>

    <report>
        <verbose value="false"/>
        <no-warnings value="true"/>
        <no-step-log value="true"/>
    </report>

    <traci_server>
        <remote-port value="52719"/>
    </traci_server>

</sumoConfiguration>
-->

<tripinfos xmlns:xsi="http://www.w3.org/2001/XMLSchema-instance" xsi:noNamespaceSchemaLocation="http://sumo.dlr.de/xsd/tripinfo_file.xsd">
    <tripinfo id="f_ns.0" depart="0.00" departLane="n2c_0" departPos="5.10" departSpeed="0.00" departDelay="0.00" arrival="34.00" arrivalLane="c2s_1" arrivalPos="189.60" arrivalSpeed="13.53" duration="34.00" routeLength="394.90" waitingTime="0.00" waitingCount="0" stopTime="0.00" timeLoss="4.68" rerouteNo="0" devices="tripinfo_f_ns.0" vType="car" speedFactor="1.06" vaporized=""/>
    <tripinfo id="f_sn.0" depart="0.00" departLane="s2c_0" departPos="5.10" departSpeed="0.00" departDelay="0.00" arrival="35.00" arrivalLane="c2n_1" arrivalPos="189.60" arrivalSpeed="12.48" duration="35.00" routeLength="394.90" waitingTime="0.00" waitingCount="0" stopTime="0.00" timeLoss="4.22" rerouteNo="0" devices="tripinfo_f_sn.0" vType="car" speedFactor="0.94" vaporized=""/>
    <tripinfo id="f_se.0" depart="3.00" departLane="s2c_0" departPos="5.10" departSpeed="0.00" departDelay="3.00" arrival="52.00" arrivalLane="c2e_0" arrivalPos="189.60" arrivalSpeed="13.27" duration="49.00" routeLength="385.83" waitingTime="10.00" waitingCount="1" stopTime="0.00" timeLoss="20.38" rerouteNo="0" devices="tripinfo_f_se.0" vType="car" speedFactor="1.05" vaporized=""/>
    <tripinfo id="f_sw.0" depart="6.00" departLane="s2c_0" departPos="5.10" departSpeed="0.00" departDelay="6.00" arrival="53.00" arrivalLane="c2w_0" arrivalPos="189.60" arrivalSpeed="12.26" duration="47.00" routeLength="397.32" waitingTime="5.00" waitingCount="1" stopTime="0.00" timeLoss="13.31" rerouteNo="0" devices="tripinfo_f_sw.0" vType="car" speedFactor="0.89" vaporized=""/>
    <tripinfo id="f_sn.1" depart="9.00" departLane="s2c_0" departPos="5.10" departSpeed="0.00" departDelay="3.86" arrival="56.00" arrivalLane="c2n_1" arrivalPos="189.60" arrivalSpeed="10.82" duration="47.00" routeLength="394.90" waitingTime="6.00" waitingCount="1" stopTime="0.00" timeLoss="17.81" rerouteNo="0" devices="tripinfo_f_sn.1" vType="car" speedFactor="1.12" vaporized=""/>
    <tripinfo id="f_sn.2" depart="12.00" departLane="s2c_0" departPos="5.10" departSpeed="0.00" departDelay="1.71" arrival="58.00" arrivalLane="c2n_1" arrivalPos="189.60" arrivalSpeed="12.76" duration="46.00" routeLength="394.90" waitingTime="6.00" waitingCount="1" stopTime="0.00" timeLoss="14.80" rerouteNo="0" devices="tripinfo_f_sn.2" vType="car" speedFactor="0.93" vaporized=""/>
    <tripinfo id="f_ne.0" depart="3.00" departLane="n2c_0" departPos="5.10" departSpeed="0.00" departDelay="3.00" arrival="61.00" arrivalLane="c2e_0" arrivalPos="189.60" arrivalSpeed="13.80" duration="58.00" routeLength="397.32" waitingTime="18.00" waitingCount="1" stopTime="0.00" timeLoss="28.16" rerouteNo="0" devices="tripinfo_f_ne.0" vType="car" speedFactor="1.03" vaporized=""/>
    <tripinfo id="f_ew.0" depart="0.00" departLane="e2c_0" departPos="5.10" departSpeed="0.00" departDelay="0.00" arrival="63.00" arrivalLane="c2w_1" arrivalPos="189.60" arrivalSpeed="13.00" duration="63.00" routeLength="394.90" waitingTime="25.00" waitingCount="1" stopTime="0.00" timeLoss="34.40" rerouteNo="0" devices="tripinfo_f_ew.0" vType="car" speedFactor="1.01" vaporized=""/>
    <tripinfo id="f_we.0" depart="0.00" departLane="w2c_0" departPos="5.10" departSpeed="0.00" departDelay="0.00" arrival="64.00" arrivalLane="c2e_1" arrivalPos="189.60" arrivalSpeed="13.27" duration="64.00" routeLength="394.90" waitingTime="25.00" waitingCount="1" stopTime="0.00" timeLoss="35.43" rerouteNo="0" devices="tripinfo_f_we.0" vType="car" speedFactor="1.08" vaporized=""/>
    <tripinfo id="f_wn.0" depart="3.00" departLane="w2c_0" departPos="5.10" departSpeed="0.00" departDelay="3.00" arrival="77.00" arrivalLane="c2n_0" arrivalPos="189.60" arrivalSpeed="13.10" duration="74.00" routeLength="397.32" waitingTime="30.00" waitingCount="3" stopTime="0.00" timeLoss="44.90" rerouteNo="0" devices="tripinfo_f_wn.0" vType="car" speedFactor="1.09" vaporized=""/>
    <tripinfo id="f_es.0" depart="6.00" departLane="e2c_0" departPos="5.10" departSpeed="0.00" departDelay="6.00" arrival="80.00" arrivalLane="c2s_0" arrivalPos="189.60" arrivalSpeed="11.84" duration="74.00" routeLength="397.32" waitingTime="23.00" waitingCount="2" stopTime="0.00" timeLoss="39.13" rerouteNo="0" devices="tripinfo_f_es.0" vType="car" speedFactor="0.86" vaporized=""/>
    <tripinfo id="f_en.0" depart="3.00" departLane="e2c_0" departPos="5.10" departSpeed="0.00" departDelay="3.00" arrival="82.00" arrivalLane="c2n_0" arrivalPos="189.60" arrivalSpeed="12.21" duration="79.00" routeLength="385.83" waitingTime="37.00" waitingCount="2" stopTime="0.00" timeLoss="48.27" rerouteNo="0" devices="tripinfo_f_en.0" vType="car" speedFactor="0.94" vaporized=""/>
    <tripinfo id="f_ws.0" depart="6.00" departLane="w2c_0" departPos="5.10" departSpeed="0.00" departDelay="6.00" arrival="82.00" arrivalLane="c2s_0" arrivalPos="189.60" arrivalSpeed="12.63" duration="76.00" routeLength="385.83" waitingTime="31.00" waitingCount="2" stopTime="0.00" timeLoss="46.94" rerouteNo="0" devices="tripinfo_f_ws.0" vType="car" speedFactor="1.03" vaporized=""/>
    <tripinfo id="f_we.1" depart="11.00" departLane="w2c_0" departPos="5.10" departSpeed="0.00" departDelay="0.71" arrival="84.00" arrivalLane="c2e_1" arrivalPos="189.60" arrivalSpeed="12.17" duration="73.00" routeLength="394.90" waitingTime="27.00" waitingCount="2" stopTime="0.00" timeLoss="42.15" rerouteNo="0" devices="tripinfo_f_we.1" vType="car" speedFactor="0.94" vaporized=""/>
    <tripinfo id="f_ew.1" depart="11.00" departLane="e2c_0" departPos="5.10" departSpeed="0.00" departDelay="0.71" arrival="86.00" arrivalLane="c2w_1" arrivalPos="189.60" arrivalSpeed="11.05" duration="75.00" routeLength="394.90" waitingTime="28.00" waitingCount="2" stopTime="0.00" timeLoss="41.93" rerouteNo="0" devices="tripinfo_f_ew.1" vType="car" speedFactor="0.88" vaporized=""/>
    <tripinfo id="f_ew.2" depart="21.00" departLane="e2c_0" departPos="5.10" departSpeed="0.00" departDelay="0.43" arrival="87.00" arrivalLane="c2w_1" arrivalPos="189.60" arrivalSpeed="12.43" duration="66.00" routeLength="394.90" waitingTime="19.00" waitingCount="2" stopTime="0.00" timeLoss="36.82" rerouteNo="0" devices="tripinfo_f_ew.2" vType="car" speedFactor="0.97" vaporized=""/>
    <tripinfo id="f_we.2" depart="21.00" departLane="w2c_0" departPos="5.10" departSpeed="0.00" departDelay="0.43" arrival="87.00" arrivalLane="c2e_1" arrivalPos="189.60" arrivalSpeed="11.40" duration="66.00" routeLength="394.90" waitingTime="16.00" waitingCount="2" stopTime="0.00" timeLoss="33.98" rerouteNo="0" devices="tripinfo_f_we.2" vType="car" speedFactor="0.89" vaporized=""/>
    <tripinfo id="f_ew.3" depart="31.00" departLane="e2c_0" departPos="5.10" departSpeed="0.00" departDelay="0.14" arrival="89.00" arrivalLane="c2w_1" arrivalPos="189.60" arrivalSpeed="12.84" duration="58.00" routeLength="394.90" waitingTime="10.00" waitingCount="1" stopTime="0.00" timeLoss="29.25" rerouteNo="0" devices="tripinfo_f_ew.3" vType="car" speedFactor="1.01" vaporized=""/>
    <tripinfo id="f_we.3" depart="31.00" departLane="w2c_0" departPos="5.10" departSpeed="0.00" departDelay="0.14" arrival="89.00" arrivalLane="c2e_1" arrivalPos="189.60" arrivalSpeed="13.46" duration="58.00" routeLength="394.90" waitingTime="10.00" waitingCount="1" stopTime="0.00" timeLoss="29.08" rerouteNo="0" devices="tripinfo_f_we.3" vType="car" speedFactor="1.17" vaporized=""/>
    <tripinfo id="f_ew.4" depart="42.00" departLane="e2c_0" departPos="5.10" departSpeed="0.00" departDelay="0.86" arrival="91.00" arrivalLane="c2w_1" arrivalPos="189.60" arrivalSpeed="13.23" duration="49.00" routeLength="394.90" waitingTime="6.00" waitingCount="1" stopTime="0.00" timeLoss="19.99" rerouteNo="0" devices="tripinfo_f_ew.4" vType="car" speedFactor="1.10" vaporized=""/>
    <tripinfo id="f_we.4" depart="42.00" departLane="w2c_0" departPos="5.10" departSpeed="0.00" departDelay="0.86" arrival="91.00" arrivalLane="c2e_1" arrivalPos="189.60" arrivalSpeed="11.86" duration="49.00" routeLength="394.90" waitingTime="5.00" waitingCount="1" stopTime="0.00" timeLoss="17.08" rerouteNo="0" devices="tripinfo_f_we.4" vType="car" speedFactor="0.90" vaporized=""/>
    <tripinfo id="f_ew.5" depart="52.00" departLane="e2c_0" departPos="5.10" departSpeed="0.00" departDelay="0.57" arrival="93.00" arrivalLane="c2w_1" arrivalPos="189.60" arrivalSpeed="13.17" duration="41.00" routeLength="394.90" waitingTime="0.00" waitingCount="0" stopTime="0.00" timeLoss="11.81" rerouteNo="0" devices="tripinfo_f_ew.5" vType="car" speedFactor="1.04" vaporized=""/>
    <tripinfo id="f_we.5" depart="52.00" departLane="w2c_0" departPos="5.10" departSpeed="0.00" departDelay="0.57" arrival="93.00" arrivalLane="c2e_1" arrivalPos="189.60" arrivalSpeed="13.11" duration="41.00" routeLength="394.90" waitingTime="0.00" waitingCount="0" stopTime="0.00" timeLoss="11.94" rerouteNo="0" devices="tripinfo_f_we.5" vType="car" speedFactor="1.09" vaporized=""/>
    <tripinfo id="f_es.1" depart="63.00" departLane="e2c_0" departPos="5.10" departSpeed="0.00" departDelay="3.00" arrival="104.00" arrivalLane="c2s_0" arrivalPos="189.60" arrivalSpeed="13.28" duration="41.00" routeLength="397.32" waitingTime="2.00" waitingCount="1" stopTime="0.00" timeLoss="11.55" rerouteNo="0" devices="tripinfo_f_es.1" vType="car" speedFactor="1.10" vaporized=""/>
    <tripinfo id="f_wn.1" depart="60.00" departLane="w2c_0" departPos="5.10" departSpeed="0.00" departDelay="0.00" arrival="105.00" arrivalLane="c2n_0" arrivalPos="189.60" arrivalSpeed="13.64" duration="45.00" routeLength="397.32" waitingTime="6.00" waitingCount="1" stopTime="0.00" timeLoss="15.22" rerouteNo="0" devices="tripinfo_f_wn.1" vType="car" speedFactor="1.00" vaporized=""/>
    <tripinfo id="f_sn.3" depart="16.00" departLane="s2c_0" departPos="5.10" departSpeed="0.00" departDelay="0.57" arrival="108.00" arrivalLane="c2n_1" arrivalPos="189.60" arrivalSpeed="13.86" duration="92.00" routeLength="394.90" waitingTime="48.00" waitingCount="2" stopTime="0.00" timeLoss="63.19" rerouteNo="0" devices="tripinfo_f_sn.3" vType="car" speedFactor="1.16" vaporized=""/>
    <tripinfo id="f_sn.4" depart="21.00" departLane="s2c_0" departPos="5.10" departSpeed="0.00" departDelay="0.43" arrival="110.00" arrivalLane="c2n_1" arrivalPos="189.60" arrivalSpeed="12.96" duration="89.00" routeLength="394.90" waitingTime="44.00" waitingCount="1" stopTime="0.00" timeLoss="60.30" rerouteNo="0" devices="tripinfo_f_sn.4" vType="car" speedFactor="1.01" vaporized=""/>
    <tripinfo id="f_sn.5" depart="26.00" departLane="s2c_0" departPos="5.10" departSpeed="0.00" departDelay="0.29" arrival="114.00" arrivalLane="c2n_1" arrivalPos="189.60" arrivalSpeed="11.12" duration="88.00" routeLength="394.90" waitingTime="44.00" waitingCount="1" stopTime="0.00" timeLoss="55.07" rerouteNo="0" devices="tripinfo_f_sn.5" vType="car" speedFactor="0.87" vaporized=""/>
    <tripinfo id="f_sw.1" depart="33.00" departLane="s2c_0" departPos="5.10" departSpeed="0.00" departDelay="3.00" arrival="118.00" arrivalLane="c2w_0" arrivalPos="189.60" arrivalSpeed="12.40" duration="85.00" routeLength="397.32" waitingTime="43.00" waitingCount="2" stopTime="0.00" timeLoss="52.83" rerouteNo="0" devices="tripinfo_f_sw.1" vType="car" speedFactor="0.93" vaporized=""/>
    <tripinfo id="f_sw.2" depart="63.00" departLane="s2c_0" departPos="5.10" departSpeed="0.00" departDelay="3.00" arrival="119.00" arrivalLane="c2w_0" arrivalPos="189.60" arrivalSpeed="13.33" duration="56.00" routeLength="397.32" waitingTime="12.00" waitingCount="2" stopTime="0.00" timeLoss="26.98" rerouteNo="0" devices="tripinfo_f_sw.2" vType="car" speedFactor="1.17" vaporized=""/>
    <tripinfo id="f_se.1" depart="30.00" departLane="s2c_0" departPos="5.10" departSpeed="0.00" departDelay="0.00" arrival="122.00" arrivalLane="c2e_0" arrivalPos="189.60" arrivalSpeed="13.37" duration="92.00" routeLength="385.83" waitingTime="45.00" waitingCount="2" stopTime="0.00" timeLoss="63.00" rerouteNo="0" devices="tripinfo_f_se.1" vType="car" speedFactor="1.13" vaporized=""/>
    <tripinfo id="f_sn.6" depart="36.00" departLane="s2c_0" departPos="5.10" departSpeed="0.00" departDelay="5.14" arrival="124.00" arrivalLane="c2n_1" arrivalPos="189.60" arrivalSpeed="13.39" duration="88.00" routeLength="394.90" waitingTime="42.00" waitingCount="2" stopTime="0.00" timeLoss="58.99" rerouteNo="0" devices="tripinfo_f_sn.6" vType="car" speedFactor="1.15" vaporized=""/>
    <tripinfo id="f_sn.7" depart="39.00" departLane="s2c_0" departPos="5.10" departSpeed="0.00" departDelay="3.00" arrival="126.00" arrivalLane="c2n_1" arrivalPos="189.60" arrivalSpeed="13.49" duration="87.00" routeLength="394.90" waitingTime="40.00" waitingCount="2" stopTime="0.00" timeLoss="57.78" rerouteNo="0" devices="tripinfo_f_sn.7" vType="car" speedFactor="1.02" vaporized=""/>
    <tripinfo id="f_sn.8" depart="42.00" departLane="s2c_0" departPos="5.10" departSpeed="0.00" departDelay="0.86" arrival="127.00" arrivalLane="c2n_1" arrivalPos="189.60" arrivalSpeed="13.48" duration="85.00" routeLength="394.90" waitingTime="37.00" waitingCount="2" stopTime="0.00" timeLoss="56.53" rerouteNo="0" devices="tripinfo_f_sn.8" vType="car" speedFactor="1.18" vaporized=""/>
    <tripinfo id="f_sn.9" depart="47.00" departLane="s2c_0" departPos="5.10" departSpeed="0.00" departDelay="0.71" arrival="130.00" arrivalLane="c2n_1" arrivalPos="189.60" arrivalSpeed="12.28" duration="83.00" routeLength="394.90" waitingTime="34.00" waitingCount="2" stopTime="0.00" timeLoss="52.93" rerouteNo="0" devices="tripinfo_f_sn.9" vType="car" speedFactor="0.96" vaporized=""/>
    <tripinfo id="f_sn.10" depart="52.00" departLane="s2c_0" departPos="5.10" departSpeed="0.00" departDelay="0.57" arrival="132.00" arrivalLane="c2n_1" arrivalPos="189.60" arrivalSpeed="13.06" duration="80.00" routeLength="394.90" waitingTime="30.00" waitingCount="2" stopTime="0.00" timeLoss="50.87" rerouteNo="0" devices="tripinfo_f_sn.10" vType="car" speedFactor="1.04" vaporized=""/>
    <tripinfo id="f_sw.3" depart="92.00" departLane="s2c_0" departPos="5.10" departSpeed="0.00" departDelay="2.00" arrival="135.00" arrivalLane="c2w_0" arrivalPos="189.60" arrivalSpeed="13.52" duration="43.00" routeLength="397.32" waitingTime="2.00" waitingCount="1" stopTime="0.00" timeLoss="12.96" rerouteNo="0" devices="tripinfo_f_sw.3" vType="car" speedFactor="0.98" vaporized=""/>
    <tripinfo id="f_sn.11" depart="57.00" departLane="s2c_0" departPos="5.10" departSpeed="0.00" departDelay="0.43" arrival="140.00" arrivalLane="c2n_1" arrivalPos="189.60" arrivalSpeed="11.26" duration="83.00" routeLength="394.90" waitingTime="28.00" waitingCount="2" stopTime="0.00" timeLoss="51.13" rerouteNo="0" devices="tripinfo_f_sn.11" vType="car" speedFactor="0.90" vaporized=""/>
    <tripinfo id="f_se.2" depart="60.00" departLane="s2c_0" departPos="5.10" departSpeed="0.00" departDelay="0.00" arrival="142.00" arrivalLane="c2e_0" arrivalPos="189.60" arrivalSpeed="11.28" duration="82.00" routeLength="385.83" waitingTime="26.00" waitingCount="2" stopTime="0.00" timeLoss="48.74" rerouteNo="0" devices="tripinfo_f_se.2" vType="car" speedFactor="0.85" vaporized=""/>
    <tripinfo id="f_sn.12" depart="66.00" departLane="s2c_0" departPos="5.10" departSpeed="0.00" departDelay="4.28" arrival="142.00" arrivalLane="c2n_1" arrivalPos="189.60" arrivalSpeed="12.84" duration="76.00" routeLength="394.90" waitingTime="23.00" waitingCount="2" stopTime="0.00" timeLoss="47.28" rerouteNo="0" devices="tripinfo_f_sn.12" vType="car" speedFactor="1.14" vaporized=""/>
    <tripinfo id="f_sn.13" depart="69.00" departLane="s2c_0" departPos="5.10" departSpeed="0.00" departDelay="2.14" arrival="144.00" arrivalLane="c2n_1" arrivalPos="189.60" arrivalSpeed="13.52" duration="75.00" routeLength="394.90" waitingTime="21.00" waitingCount="2" stopTime="0.00" timeLoss="46.29" rerouteNo="0" devices="tripinfo_f_sn.13" vType="car" speedFactor="1.12" vaporized=""/>
    <tripinfo id="f_sn.14" depart="73.00" departLane="s2c_0" departPos="5.10" departSpeed="0.00" departDelay="1.00" arrival="146.00" arrivalLane="c2n_1" arrivalPos="189.60" arrivalSpeed="12.88" duration="73.00" routeLength="394.90" waitingTime="17.00" waitingCount="1" stopTime="0.00" timeLoss="43.82" rerouteNo="0" devices="tripinfo_f_sn.14" vType="car" speedFactor="0.99" vaporized=""/>
    <tripinfo id="f_ne.1" depart="30.00" departLane="n2c_0" departPos="5.10" departSpeed="0.00" departDelay="0.00" arrival="152.00" arrivalLane="c2e_0" arrivalPos="189.60" arrivalSpeed="12.50" duration="122.00" routeLength="397.32" waitingTime="79.00" waitingCount="2" stopTime="0.00" timeLoss="90.00" rerouteNo="0" devices="tripinfo_f_ne.1" vType="car" speedFactor="0.92" vaporized=""/>
    <tripinfo id="f_en.1" depart="60.00" departLane="e2c_0" departPos="5.10" departSpeed="0.00" departDelay="0.00" arrival="152.00" arrivalLane="c2n_0" arrivalPos="189.60" arrivalSpeed="13.26" duration="92.00" routeLength="385.83" waitingTime="55.00" waitingCount="1" stopTime="0.00" timeLoss="63.42" rerouteNo="0" devices="tripinfo_f_en.1" vType="car" speedFactor="1.02" vaporized=""/>
    <tripinfo id="f_ew.6" depart="66.00" departLane="e2c_0" departPos="5.10" departSpeed="0.00" departDelay="4.28" arrival="156.00" arrivalLane="c2w_1" arrivalPos="189.60" arrivalSpeed="13.31" duration="90.00" routeLength="394.90" waitingTime="51.00" waitingCount="1" stopTime="0.00" timeLoss="60.79" rerouteNo="0" devices="tripinfo_f_ew.6" vType="car" speedFactor="1.02" vaporized=""/>
    <tripinfo id="f_ew.7" depart="73.00" departLane="e2c_0" departPos="5.10" departSpeed="0.00" departDelay="1.00" arrival="158.00" arrivalLane="c2w_1" arrivalPos="189.60" arrivalSpeed="12.92" duration="85.00" routeLength="394.90" waitingTime="44.00" waitingCount="1" stopTime="0.00" timeLoss="54.42" rerouteNo="0" devices="tripinfo_f_ew.7" vType="car" speedFactor="0.94" vaporized=""/>
    <tripinfo id="f_ew.8" depart="83.00" departLane="e2c_0" departPos="5.10" departSpeed="0.00" departDelay="0.71" arrival="160.00" arrivalLane="c2w_1" arrivalPos="189.60" arrivalSpeed="13.67" duration="77.00" routeLength="394.90" waitingTime="38.00" waitingCount="1" stopTime="0.00" timeLoss="47.97" rerouteNo="0" devices="tripinfo_f_ew.8" vType="car" speedFactor="1.02" vaporized=""/>
    <tripinfo id="f_ew.9" depart="93.00" departLane="e2c_0" departPos="5.10" departSpeed="0.00" departDelay="0.43" arrival="162.00" arrivalLane="c2w_1" arrivalPos="189.60" arrivalSpeed="13.14" duration="69.00" routeLength="394.90" waitingTime="27.00" waitingCount="1" stopTime="0.00" timeLoss="39.73" rerouteNo="0" devices="tripinfo_f_ew.9" vType="car" speedFactor="1.03" vaporized=""/>
    <tripinfo id="f_ew.10" depart="103.00" departLane="e2c_0" departPos="5.10" departSpeed="0.00" departDelay="0.14" arrival="163.00" arrivalLane="c2w_1" arrivalPos="189.60" arrivalSpeed="13.62" duration="60.00" routeLength="394.90" waitingTime="20.00" waitingCount="1" stopTime="0.00" timeLoss="31.43" rerouteNo="0" devices="tripinfo_f_ew.10" vType="car" speedFactor="1.00" vaporized=""/>
    <tripinfo id="f_es.2" depart="123.00" departLane="e2c_0" departPos="5.10" departSpeed="0.00" departDelay="3.00" arrival="166.00" arrivalLane="c2s_0" arrivalPos="189.60" arrivalSpeed="12.69" duration="43.00" routeLength="397.32" waitingTime="2.00" waitingCount="2" stopTime="0.00" timeLoss="11.76" rerouteNo="0" devices="tripinfo_f_es.2" vType="car" speedFactor="0.96" vaporized=""/>
    <tripinfo id="f_ew.11" depart="114.00" departLane="e2c_0" departPos="5.10" departSpeed="0.00" departDelay="0.85" arrival="168.00" arrivalLane="c2w_1" arrivalPos="189.60" arrivalSpeed="10.77" duration="54.00" routeLength="394.90" waitingTime="8.00" waitingCount="1" stopTime="0.00" timeLoss="19.74" rerouteNo="0" devices="tripinfo_f_ew.11" vType="car" speedFactor="0.83" vaporized=""/>
    <tripinfo id="f_en.2" depart="120.00" departLane="e2c_0" departPos="5.10" departSpeed="0.00" departDelay="0.00" arrival="169.00" arrivalLane="c2n_0" arrivalPos="189.60" arrivalSpeed="13.70" duration="49.00" routeLength="385.83" waitingTime="6.00" waitingCount="1" stopTime="0.00" timeLoss="19.87" rerouteNo="0" devices="tripinfo_f_en.2" vType="car" speedFactor="1.06" vaporized=""/>
    <tripinfo id="f_ew.12" depart="126.00" departLane="e2c_0" departPos="5.10" departSpeed="0.00" departDelay="2.57" arrival="170.00" arrivalLane="c2w_1" arrivalPos="189.60" arrivalSpeed="13.83" duration="44.00" routeLength="394.90" waitingTime="0.00" waitingCount="0" stopTime="0.00" timeLoss="15.05" rerouteNo="0" devices="tripinfo_f_ew.12" vType="car" speedFactor="1.01" vaporized=""/>
    <tripinfo id="f_ew.13" depart="134.00" departLane="e2c_0" departPos="5.10" departSpeed="0.00" departDelay="0.28" arrival="172.00" arrivalLane="c2w_1" arrivalPos="189.60" arrivalSpeed="13.09" duration="38.00" routeLength="394.90" waitingTime="0.00" waitingCount="0" stopTime="0.00" timeLoss="9.36" rerouteNo="0" devices="tripinfo_f_ew.13" vType="car" speedFactor="1.10" vaporized=""/>
    <tripinfo id="f_wn.2" depart="120.00" departLane="w2c_0" departPos="5.10" departSpeed="0.00" departDelay="0.00" arrival="177.00" arrivalLane="c2n_0" arrivalPos="189.60" arrivalSpeed="13.09" duration="57.00" routeLength="397.32" waitingTime="18.00" waitingCount="1" stopTime="0.00" timeLoss="26.18" rerouteNo="0" devices="tripinfo_f_wn.2" vType="car" speedFactor="0.97" vaporized=""/>
    <tripinfo id="f_ws.1" depart="63.00" departLane="w2c_0" departPos="5.10" departSpeed="0.00" departDelay="3.00" arrival="178.00" arrivalLane="c2s_0" arrivalPos="189.60" arrivalSpeed="13.06" duration="115.00" routeLength="385.83" waitingTime="76.00" waitingCount="1" stopTime="0.00" timeLoss="86.08" rerouteNo="0" devices="tripinfo_f_ws.1" vType="car" speedFactor="1.00" vaporized=""/>
    <tripinfo id="f_ew.14" depart="145.00" departLane="e2c_0" departPos="5.10" departSpeed="0.00" departDelay="1.00" arrival="179.00" arrivalLane="c2w_1" arrivalPos="189.60" arrivalSpeed="9.05" duration="34.00" routeLength="394.90" waitingTime="0.00" waitingCount="0" stopTime="0.00" timeLoss="5.19" rerouteNo="0" devices="tripinfo_f_ew.14" vType="car" speedFactor="0.99" vaporized=""/>
    <tripinfo id="f_we.6" depart="66.00" departLane="w2c_0" departPos="5.10" departSpeed="0.00" departDelay="4.28" arrival="181.00" arrivalLane="c2e_1" arrivalPos="189.60" arrivalSpeed="13.21" duration="115.00" routeLength="394.90" waitingTime="76.00" waitingCount="1" stopTime="0.00" timeLoss="85.64" rerouteNo="0" devices="tripinfo_f_we.6" vType="car" speedFactor="0.97" vaporized=""/>
    <tripinfo id="f_we.7" depart="73.00" departLane="w2c_0" departPos="5.10" departSpeed="0.00" departDelay="1.00" arrival="185.00" arrivalLane="c2e_1" arrivalPos="189.60" arrivalSpeed="11.14" duration="112.00" routeLength="394.90" waitingTime="69.00" waitingCount="1" stopTime="0.00" timeLoss="79.33" rerouteNo="0" devices="tripinfo_f_we.7" vType="car" speedFactor="0.88" vaporized=""/>
    <tripinfo id="f_we.8" depart="83.00" departLane="w2c_0" departPos="5.10" departSpeed="0.00" departDelay="0.71" arrival="187.00" arrivalLane="c2e_1" arrivalPos="189.60" arrivalSpeed="13.40" duration="104.00" routeLength="394.90" waitingTime="61.00" waitingCount="1" stopTime="0.00" timeLoss="73.86" rerouteNo="0" devices="tripinfo_f_we.8" vType="car" speedFactor="0.97" vaporized=""/>
    <tripinfo id="f_we.9" depart="93.00" departLane="w2c_0" departPos="5.10" departSpeed="0.00" departDelay="0.43" arrival="188.00" arrivalLane="c2e_1" arrivalPos="189.60" arrivalSpeed="13.73" duration="95.00" routeLength="394.90" waitingTime="52.00" waitingCount="1" stopTime="0.00" timeLoss="66.35" rerouteNo="0" devices="tripinfo_f_we.9" vType="car" speedFactor="1.00" vaporized=""/>
    <tripinfo id="f_ew.15" depart="155.00" departLane="e2c_0" departPos="5.10" departSpeed="0.00" departDelay="0.71" arrival="188.00" arrivalLane="c2w_1" arrivalPos="189.60" arrivalSpeed="13.55" duration="33.00" routeLength="394.90" waitingTime="0.00" waitingCount="0" stopTime="0.00" timeLoss="4.10" rerouteNo="0" devices="tripinfo_f_ew.15" vType="car" speedFactor="1.12" vaporized=""/>
    <tripinfo id="f_we.10" depart="103.00" departLane="w2c_0" departPos="5.10" departSpeed="0.00" departDelay="0.14" arrival="190.00" arrivalLane="c2e_1" arrivalPos="189.60" arrivalSpeed="13.20" duration="87.00" routeLength="394.90" waitingTime="45.00" waitingCount="1" stopTime="0.00" timeLoss="58.07" rerouteNo="0" devices="tripinfo_f_we.10" vType="car" speedFactor="1.04" vaporized=""/>
    <tripinfo id="f_we.11" depart="114.00" departLane="w2c_0" departPos="5.10" departSpeed="0.00" departDelay="0.85" arrival="192.00" arrivalLane="c2e_1" arrivalPos="189.60" arrivalSpeed="12.09" duration="78.00" routeLength="394.90" waitingTime="35.00" waitingCount="1" stopTime="0.00" timeLoss="46.67" rerouteNo="0" devices="tripinfo_f_we.11" vType="car" speedFactor="0.92" vaporized=""/>
    <tripinfo id="f_sn.15" depart="78.00" departLane="s2c_0" departPos="5.10" departSpeed="0.00" departDelay="0.86" arrival="200.00" arrivalLane="c2n_1" arrivalPos="189.60" arrivalSpeed="11.62" duration="122.00" routeLength="394.90" waitingTime="60.00" waitingCount="2" stopTime="0.00" timeLoss="90.07" rerouteNo="0" devices="tripinfo_f_sn.15" vType="car" speedFactor="0.91" vaporized=""/>
    <tripinfo id="f_sn.16" depart="83.00" departLane="s2c_0" departPos="5.10" departSpeed="0.00" departDelay="0.71" arrival="201.00" arrivalLane="c2n_1" arrivalPos="189.60" arrivalSpeed="12.92" duration="118.00" routeLength="394.90" waitingTime="56.00" waitingCount="2" stopTime="0.00" timeLoss="89.35" rerouteNo="0" devices="tripinfo_f_sn.16" vType="car" speedFactor="1.02" vaporized=""/>
    <tripinfo id="f_sn.17" depart="88.00" departLane="s2c_0" departPos="5.10" departSpeed="0.00" departDelay="0.57" arrival="204.00" arrivalLane="c2n_1" arrivalPos="189.60" arrivalSpeed="10.36" duration="116.00" routeLength="394.90" waitingTime="53.00" waitingCount="2" stopTime="0.00" timeLoss="86.83" rerouteNo="0" devices="tripinfo_f_sn.17" vType="car" speedFactor="1.06" vaporized=""/>
    <tripinfo id="f_sw.4" depart="123.00" departLane="s2c_0" departPos="5.10" departSpeed="0.00" departDelay="3.00" arrival="208.00" arrivalLane="c2w_0" arrivalPos="189.60" arrivalSpeed="12.61" duration="85.00" routeLength="397.32" waitingTime="42.00" waitingCount="2" stopTime="0.00" timeLoss="55.63" rerouteNo="0" devices="tripinfo_f_sw.4" vType="car" speedFactor="1.10" vaporized=""/>
    <tripinfo id="f_sw.5" depart="154.00" departLane="s2c_0" departPos="5.10" departSpeed="0.00" departDelay="4.00" arrival="210.00" arrivalLane="c2w_0" arrivalPos="189.60" arrivalSpeed="13.09" duration="56.00" routeLength="397.32" waitingTime="14.00" waitingCount="2" stopTime="0.00" timeLoss="26.90" rerouteNo="0" devices="tripinfo_f_sw.5" vType="car" speedFactor="1.15" vaporized=""/>
    <tripinfo id="f_sw.6" depart="181.00" departLane="s2c_0" departPos="5.10" departSpeed="0.00" departDelay="1.00" arrival="216.00" arrivalLane="c2w_0" arrivalPos="189.60" arrivalSpeed="13.61" duration="35.00" routeLength="397.32" waitingTime="0.00" waitingCount="0" stopTime="0.00" timeLoss="5.61" rerouteNo="0" devices="tripinfo_f_sw.6" vType="car" speedFactor="1.14" vaporized=""/>
    <tripinfo id="f_se.3" depart="90.00" departLane="s2c_0" departPos="5.10" departSpeed="0.00" departDelay="0.00" arrival="218.00" arrivalLane="c2e_0" arrivalPos="189.60" arrivalSpeed="13.28" duration="128.00" routeLength="385.83" waitingTime="63.00" waitingCount="3" stopTime="0.00" timeLoss="99.80" rerouteNo="0" devices="tripinfo_f_se.3" vType="car" speedFactor="1.03" vaporized=""/>
    <tripinfo id="f_sn.18" depart="95.00" departLane="s2c_0" departPos="5.10" departSpeed="0.00" departDelay="2.43" arrival="221.00" arrivalLane="c2n_1" arrivalPos="189.60" arrivalSpeed="13.77" duration="126.00" routeLength="394.90" waitingTime="57.00" waitingCount="3" stopTime="0.00" timeLoss="97.38" rerouteNo="0" devices="tripinfo_f_sn.18" vType="car" speedFactor="1.09" vaporized=""/>
    <tripinfo id="f_sn.19" depart="98.00" departLane="s2c_0" departPos="5.10" departSpeed="0.00" departDelay="0.28" arrival="223.00" arrivalLane="c2n_1" arrivalPos="189.60" arrivalSpeed="12.92" duration="125.00" routeLength="394.90" waitingTime="55.00" waitingCount="3" stopTime="0.00" timeLoss="95.29" rerouteNo="0" devices="tripinfo_f_sn.19" vType="car" speedFactor="0.97" vaporized=""/>
    <tripinfo id="f_sn.35" depart="184.00" departLane="s2c_0" departPos="5.10" departSpeed="0.00" departDelay="4.00" arrival="226.00" arrivalLane="c2n_1" arrivalPos="189.60" arrivalSpeed="12.61" duration="42.00" routeLength="394.90" waitingTime="3.00" waitingCount="2" stopTime="0.00" timeLoss="13.05" rerouteNo="0" devices="tripinfo_f_sn.35" vType="car" speedFactor="1.00" vaporized=""/>